# Force           
# CofR            : (0.0000000000e+00 0.0000000000e+00 0.0000000000e+00)
#
# Time            	total_x total_y total_z	pressure_x pressure_y pressure_z	viscous_x viscous_y viscous_z
0.128370           9.8086658488e-01 2.9627536402e-03 -5.7619305683e-22 9.5881910826e-01 4.1896217442e-04 6.9887595929e-23 2.2047476617e-02 2.5437914658e-03 -6.4608065276e-22
0.256739           3.3057706370e-01 9.2568448293e-04 -1.4957074429e-21 3.3049295055e-01 3.1110551229e-04 -3.6408712259e-22 8.4113146067e-05 6.1457897064e-04 -1.1316203203e-21
0.385109           -3.7406181198e-01 2.7425129070e-04 -9.7577065287e-22 -3.7022933526e-01 2.2405616479e-04 -7.1643924777e-22 -3.8324767155e-03 5.0195125906e-05 -2.5933140510e-22
0.513479           -4.9740212477e-01 6.4775964847e-05 -1.2991946564e-21 -4.9711998197e-01 2.8154011095e-04 -4.8568745452e-22 -2.8214280395e-04 -2.1676414610e-04 -8.1350720186e-22
0.641849           -1.1065582060e-01 -1.8937789946e-05 -9.4698000940e-22 -1.1422356919e-01 2.7479356242e-04 1.4160627281e-22 3.5677485888e-03 -2.9373135236e-04 -1.0885862822e-21
0.770218           2.8232121228e-01 1.1013513465e-04 -2.7906276564e-22 2.7816848442e-01 3.1094157027e-04 4.6095139224e-22 4.1527278525e-03 -2.0080643562e-04 -7.4001415788e-22
0.898588           2.9133131658e-01 4.9566128844e-04 -5.6776969506e-22 2.8903770024e-01 5.8101716146e-04 8.5177119623e-23 2.2936163425e-03 -8.5355873024e-05 -6.5294681468e-22
1.026958           3.3472513790e-02 9.5575005074e-04 -9.1513038605e-22 3.2893618000e-02 1.0434050911e-03 -5.1150684411e-22 5.7889579035e-04 -8.7655040322e-05 -4.0362354195e-22
1.155327           -1.6609928677e-01 9.1792188920e-04 -6.8567105354e-22 -1.6655275616e-01 1.1022425478e-03 -6.5800806765e-22 4.5346938485e-04 -1.8432065861e-04 -2.7662985897e-23
1.283697           -1.4512766318e-01 4.6087404595e-04 -2.5073932528e-22 -1.4646304585e-01 7.3083971416e-04 -2.8766386698e-22 1.3353826766e-03 -2.6996566821e-04 3.6924541701e-23
1.412067           1.0274257245e-02 6.0849847312e-05 9.5974467653e-23 8.3259602748e-03 3.1117201675e-04 1.6497784062e-22 1.9482969703e-03 -2.5032216944e-04 -6.9003372968e-23
1.540436           1.1259770932e-01 2.1729255675e-04 1.1595719929e-22 1.1085465865e-01 3.9269551623e-04 2.1083419504e-22 1.7430506741e-03 -1.7540295948e-04 -9.4876995755e-23
1.668806           8.4272359872e-02 8.1405676778e-04 1.6584311787e-22 8.3122900672e-02 9.3889380812e-04 -1.1768993208e-22 1.1494592005e-03 -1.2483704034e-04 2.8353304995e-22
1.797176           -6.1908318589e-03 1.2502414792e-03 -6.9607385518e-23 -7.0064746588e-03 1.4077188810e-03 -4.2080344596e-22 8.1564279986e-04 -1.5747740181e-04 3.5119606044e-22
1.925546           -5.5992894169e-02 1.1490937327e-03 6.4429399397e-23 -5.6916117243e-02 1.3672954970e-03 -4.0240532484e-22 9.2322307362e-04 -2.1820176430e-04 4.6683472423e-22
2.053915           -3.4957368591e-02 6.5336697298e-04 1.0913151140e-22 -3.6126467507e-02 9.1335071019e-04 -1.5174215214e-22 1.1690989157e-03 -2.5998373721e-04 2.6087366354e-22
2.182285           1.6756316322e-02 3.9411808705e-04 1.5666473013e-22 1.5519358903e-02 6.3230504632e-04 4.4664599309e-23 1.2369574190e-03 -2.3818695927e-04 1.1200013082e-22
2.310655           4.1250846299e-02 6.6013889149e-04 1.6357719865e-22 4.0165697870e-02 8.6347073857e-04 1.5459732834e-25 1.0851484294e-03 -2.0333184708e-04 1.6342260132e-22
2.439024           2.6319374407e-02 1.1723851562e-03 1.7471452669e-23 2.5415795725e-02 1.3608628010e-03 -1.8211108951e-22 9.0357868196e-04 -1.8847764485e-04 1.9958254218e-22
2.567394           -1.8660232927e-03 1.4045246018e-03 5.6992762774e-23 -2.7129710134e-03 1.6193833142e-03 -2.9335878310e-22 8.4694772065e-04 -2.1485871246e-04 3.5035154587e-22
2.695764           -1.4125231281e-02 1.2308841510e-03 1.4549601739e-22 -1.5025821874e-02 1.4817200319e-03 -2.4707935377e-22 9.0059059247e-04 -2.5083588090e-04 3.9257537116e-22
2.824134           -5.4410174421e-03 9.2794180862e-04 2.7730121616e-22 -6.3934798313e-03 1.1936907695e-03 -1.2331469859e-22 9.5246238921e-04 -2.6574896085e-04 4.0061591475e-22
2.952503           1.0222451013e-02 8.8902613024e-04 2.7270504810e-22 9.2916267958e-03 1.1423342402e-03 -5.9187980370e-23 9.3082421758e-04 -2.5330810998e-04 3.3189302847e-22
3.080873           1.6742296674e-02 1.1654759707e-03 1.4644188129e-22 1.5883388515e-02 1.4032732111e-03 -9.9592834008e-23 8.5890815892e-04 -2.3779724039e-04 2.4603471530e-22
3.209243           1.1708380954e-02 1.5021057810e-03 8.9055959684e-23 1.0907267465e-02 1.7411106057e-03 -1.8051264519e-22 8.0111348865e-04 -2.3900482473e-04 2.6956860488e-22
3.337612           3.1406702326e-03 1.6091907155e-03 2.6855899113e-23 2.3501206706e-03 1.8649723668e-03 -2.1395418953e-22 7.9054956200e-04 -2.5578165129e-04 2.4081008865e-22
3.465982           -3.1869883121e-04 1.5071443884e-03 1.1199523979e-22 -1.1231464273e-03 1.7796486348e-03 -1.8114669587e-22 8.0444759604e-04 -2.7250424641e-04 2.9314193566e-22
3.594352           2.5528413639e-03 1.4017690434e-03 1.5896589221e-22 1.7466143521e-03 1.6788526135e-03 -1.2840791881e-22 8.0622701176e-04 -2.7708357001e-04 2.8737381102e-22
3.722721           7.1928054258e-03 1.4792891824e-03 8.5415049248e-23 6.4109111495e-03 1.7528177159e-03 -1.1123228201e-22 7.8189427633e-04 -2.7352853352e-04 1.9664733126e-22
3.851091           9.3453382190e-03 1.7130222734e-03 1.0373884471e-22 8.5962484709e-03 1.9825686877e-03 -1.3396560019e-22 7.4908974811e-04 -2.6954641431e-04 2.3770444490e-22
3.979461           7.9412045335e-03 1.9465995324e-03 1.4494618215e-22 7.2146733161e-03 2.2221728682e-03 -1.6597611826e-22 7.2653121746e-04 -2.7557333581e-04 3.1092230041e-22
4.107831           5.4179318222e-03 2.0510286871e-03 2.1740633007e-22 4.6979457998e-03 2.3373430084e-03 -1.7393818919e-22 7.1998602241e-04 -2.8631432128e-04 3.9134451926e-22
4.236200           4.2137557488e-03 2.0665535449e-03 7.0155607897e-23 3.4961071041e-03 2.3627619253e-03 -1.5741243065e-22 7.1764864467e-04 -2.9620838045e-04 2.2756803855e-22
4.364570           5.0168141067e-03 2.1055578660e-03 1.3348885958e-22 4.3077483635e-03 2.4050854501e-03 -1.3714501628e-22 7.0906574315e-04 -2.9952758414e-04 2.7063387587e-22
4.492940           6.6246482261e-03 2.2424939643e-03 9.7158206352e-23 5.9319037204e-03 2.5414595992e-03 -1.3190104166e-22 6.9274450560e-04 -2.9896563490e-04 2.2905924801e-22
4.621309           7.5158530572e-03 2.4539304558e-03 -9.9190495493e-23 6.8407487001e-03 2.7539417708e-03 -1.4190481935e-22 6.7510435710e-04 -3.0001131501e-04 4.2714323859e-23
4.749679           7.2465506774e-03 2.6603570465e-03 -1.0890479892e-23 6.5843930472e-03 2.9655095288e-03 -1.5378573972e-22 6.6215763019e-04 -3.0515248227e-04 1.4289525983e-22
4.878049           6.4900714175e-03 2.8112423812e-03 8.3087214783e-23 5.8357238035e-03 3.1234444100e-03 -1.5614819446e-22 6.5434761405e-04 -3.1220202887e-04 2.3923540925e-22
5.006418           6.1143277220e-03 2.9253712975e-03 1.0704821722e-22 5.4667156750e-03 3.2430547408e-03 -1.4916716166e-22 6.4761204698e-04 -3.1768344336e-04 2.5621537888e-22
5.134788           6.4203005299e-03 3.0559658732e-03 1.3011976655e-22 5.7818204293e-03 3.3761773467e-03 -1.4126963849e-22 6.3848010067e-04 -3.2021147342e-04 2.7138940504e-22
5.263158           7.0470867585e-03 3.2376577434e-03 1.9243779115e-22 6.4202014739e-03 3.5589004884e-03 -1.3945187021e-22 6.2688528463e-04 -3.2124274501e-04 3.3188966136e-22
5.391528           7.4781230119e-03 3.4582885797e-03 1.1548461803e-22 6.8628184637e-03 3.7812114979e-03 -1.4347407014e-22 6.1530454821e-04 -3.2292291815e-04 2.5895868817e-22
5.519897           7.5232141559e-03 3.6836744995e-03 1.2463214392e-22 6.9174946415e-03 4.0097212418e-03 -1.4807127616e-22 6.0571951448e-04 -3.2604674228e-04 2.7270342008e-22
5.648267           7.3777504743e-03 3.8903922141e-03 1.9095099268e-23 6.7797233730e-03 4.2200231996e-03 -1.4902052883e-22 5.9802710138e-04 -3.2963098557e-04 1.6811562810e-22
5.776637           7.3331628185e-03 4.0912647026e-03 -1.0003667401e-22 6.7424839448e-03 4.4235961399e-03 -1.4656201428e-22 5.9067887370e-04 -3.3233143734e-04 4.6525340270e-23
5.905006           7.5097054924e-03 4.3105481417e-03 -4.8991307197e-23 6.9271948931e-03 4.6442224231e-03 -1.4381919784e-22 5.8251059932e-04 -3.3367428137e-04 9.4827890641e-23
6.033376           7.8129805306e-03 4.5568662840e-03 -8.2652645841e-23 7.2393650496e-03 4.8912084194e-03 -1.4335593250e-22 5.7361548102e-04 -3.3434213535e-04 6.0703286655e-23
6.161746           8.0731956446e-03 4.8242315854e-03 -6.4099111384e-23 7.5082821872e-03 5.1593910664e-03 -1.4508146501e-22 5.6491345741e-04 -3.3515948104e-04 8.0982353626e-23
6.290116           8.2107815224e-03 5.1010004653e-03 -3.8043675235e-23 7.6537014512e-03 5.4373581990e-03 -1.4706035188e-22 5.5708007120e-04 -3.3635773363e-04 1.0901667664e-22
6.418485           8.2747375425e-03 5.3811449529e-03 -5.3962871591e-23 7.7247188873e-03 5.7186586789e-03 -1.4773866237e-22 5.5001865519e-04 -3.3751372602e-04 9.3775790784e-23
6.546855           8.3622054337e-03 5.6703938676e-03 8.8433170725e-23 7.8190448282e-03 6.0084987183e-03 -1.4717082860e-22 5.4316060549e-04 -3.3810485070e-04 2.3560399932e-22
6.675225           8.5226738289e-03 5.9778814793e-03 1.2984679620e-22 7.9865801477e-03 6.3158755964e-03 -1.4650237521e-22 5.3609368128e-04 -3.3799411712e-04 2.7634917141e-22
6.803594           8.7322574370e-03 6.3061107863e-03 8.2649508444e-23 8.2033885559e-03 6.6435643520e-03 -1.4667395430e-22 5.2886888102e-04 -3.3745356561e-04 2.2932346274e-22
6.931964           8.9351301155e-03 6.6520448950e-03 1.1309599537e-22 8.4132985526e-03 6.9888443343e-03 -1.4765107583e-22 5.2183156282e-04 -3.3679943931e-04 2.6074707120e-22
7.060334           9.1008642584e-03 7.0108907673e-03 1.9604410100e-22 8.5856343458e-03 7.3469914687e-03 -1.4875363880e-22 5.1522991262e-04 -3.3610070136e-04 3.4479773980e-22
7.188703           9.2410459133e-03 7.3823833439e-03 1.5325985560e-22 8.7320222105e-03 7.7175630335e-03 -1.4944722629e-22 5.0902370287e-04 -3.3517968966e-04 3.0270708188e-22
7.317073           9.3868544673e-03 7.7706040696e-03 1.8896465405e-22 8.8838536484e-03 8.1044338872e-03 -1.4972851300e-22 5.0300081888e-04 -3.3382981762e-04 3.3869316704e-22
7.445443           9.5581424404e-03 8.1778337677e-03 1.4320968804e-22 9.0611325830e-03 8.5098381506e-03 -1.5000949696e-22 4.9700985743e-04 -3.3200438289e-04 2.9321918500e-22
7.573813           9.7475530328e-03 8.6054212932e-03 7.7377420760e-23 9.2564791516e-03 8.9352333003e-03 -1.5062564545e-22 4.9107388119e-04 -3.2981200710e-04 2.2800306621e-22
7.702182           9.9389754365e-03 9.0504429710e-03 -3.2688310422e-23 9.4536520504e-03 9.3778176417e-03 -1.5158072900e-22 4.8532338605e-04 -3.2737467073e-04 1.1889241858e-22
7.830552           1.0118982926e-02 9.5125888387e-03 -1.5226658839e-23 9.6391307364e-03 9.8373025778e-03 -1.5267500006e-22 4.7985218944e-04 -3.2471373905e-04 1.3744834123e-22
7.958922           1.0290666887e-02 9.9914089766e-03 1.3719994242e-23 9.8160208691e-03 1.0313162929e-02 -1.5371772396e-22 4.7464601795e-04 -3.2175395190e-04 1.6743771821e-22
8.087291           1.0460934298e-02 1.0488287646e-02 -4.0651955037e-24 9.9913085274e-03 1.0806701218e-02 -1.5469940774e-22 4.6962577044e-04 -3.1841357205e-04 1.5063421224e-22
8.215661           1.0639082051e-02 1.1003952836e-02 9.6599358068e-23 1.0174347610e-02 1.1318628847e-02 -1.5573265341e-22 4.6473444060e-04 -3.1467601093e-04 2.5233201147e-22
8.344031           1.0825810794e-02 1.1539436953e-02 1.2038838195e-23 1.0365828458e-02 1.1850022135e-02 -1.5695941568e-22 4.5998233622e-04 -3.1058518246e-04 1.6899825388e-22
8.472401           1.1017209256e-02 1.2093498586e-02 -4.0989284906e-23 1.0561787403e-02 1.2399687308e-02 -1.5838959522e-22 4.5542185317e-04 -3.0618872166e-04 1.1740031031e-22
8.600770           1.1206806285e-02 1.2666056832e-02 -2.5612594257e-23 1.0755713562e-02 1.2967549879e-02 -1.5995467289e-22 4.5109272304e-04 -3.0149304694e-04 1.3434207864e-22
8.729140           1.1382140930e-02 1.3226201026e-02 1.9060228452e-23 1.0935158069e-02 1.3522693540e-02 -1.6147603494e-22 4.4698286117e-04 -2.9649251411e-04 1.8053626339e-22
8.857510           1.1568432365e-02 1.3837352196e-02 8.2651614809e-23 1.1125355070e-02 1.4128496527e-02 -1.6316288904e-22 4.4307729504e-04 -2.9114433071e-04 2.4581450384e-22
8.985879           1.1759433726e-02 1.4486179050e-02 1.2617783051e-22 1.1320081319e-02 1.4771566108e-02 -1.6497497215e-22 4.3935240684e-04 -2.8538705772e-04 2.9115280266e-22
9.114249           1.1944892150e-02 1.5142783410e-02 1.8098235111e-22 1.1509094639e-02 1.5422030029e-02 -1.6683296168e-22 4.3579751163e-04 -2.7924661984e-04 3.4781531278e-22
9.242619           1.2121780254e-02 1.5794782809e-02 1.6085912124e-22 1.1689363470e-02 1.6067571086e-02 -1.6869796322e-22 4.3241678397e-04 -2.7278827722e-04 3.2955708446e-22
9.370988           1.2297722790e-02 1.6448587041e-02 -9.9938118096e-23 1.1868493786e-02 1.6714637988e-02 -1.7058742159e-22 4.2922900407e-04 -2.6605094741e-04 7.0649303497e-23
9.499358           1.2478080309e-02 1.7117827801e-02 -1.4446889225e-22 1.2051827742e-02 1.7376853089e-02 -1.7253275658e-22 4.2625256759e-04 -2.5902528777e-04 2.8063864325e-23
9.627728           1.2661658896e-02 1.7808138607e-02 -1.0765793117e-22 1.2238168749e-02 1.8059818169e-02 -1.7457168656e-22 4.2349014749e-04 -2.5167956205e-04 6.6913755388e-23
9.756098           1.2836480045e-02 1.8514387718e-02 -1.0180325309e-22 1.2415555904e-02 1.8758385708e-02 -1.7666086137e-22 4.2092414154e-04 -2.4399799069e-04 7.4857608279e-23
9.884467           1.2996874922e-02 1.9226133054e-02 -1.3088604227e-22 1.2578344251e-02 1.9462129527e-02 -1.7872651344e-22 4.1853067095e-04 -2.3599647279e-04 4.7840471174e-23
10.012837          1.3151558806e-02 1.9936642828e-02 -2.9862050891e-23 1.2735254214e-02 2.0164352342e-02 -1.8074277457e-22 4.1630459167e-04 -2.2770951402e-04 1.5088072368e-22
10.141207          1.3309534876e-02 2.0644588314e-02 1.2636342797e-22 1.2895271765e-02 2.0863754197e-02 -1.8273866291e-22 4.1426311102e-04 -2.1916588246e-04 3.0910209088e-22
10.269576          1.3469032550e-02 2.1349899954e-02 1.6298594841e-22 1.3056608483e-02 2.1560279011e-02 -1.8473191995e-22 4.1242406679e-04 -2.1037905719e-04 3.4771786836e-22
10.397946          1.3609512979e-02 2.2055763389e-02 2.5690700410e-22 1.3198736624e-02 2.2257115440e-02 -1.8670885564e-22 4.1077635513e-04 -2.0135205109e-04 4.4361585974e-22
10.526316          1.3728704408e-02 2.2760362238e-02 2.3610065083e-22 1.3319414753e-02 2.2952453836e-02 -1.8866627373e-22 4.0928965464e-04 -1.9209159825e-04 4.2476692456e-22
10.654685          1.3840009474e-02 2.3457805159e-02 1.5334840503e-22 1.3432059941e-02 2.3640420675e-02 -1.9059296482e-22 4.0794953261e-04 -1.8261551540e-04 3.4394136985e-22
10.783055          1.3951668014e-02 2.4142107416e-02 1.5183581942e-22 1.3544904000e-02 2.4315058145e-02 -1.9246761660e-22 4.0676401380e-04 -1.7295072888e-04 3.4430343603e-22
10.911425          1.4044146223e-02 2.4812291134e-02 1.0902144407e-22 1.3638414650e-02 2.4975415185e-02 -1.9426748133e-22 4.0573157275e-04 -1.6312405119e-04 3.0328892540e-22
11.039795          1.4110332844e-02 2.5470063710e-02 2.2035330011e-23 1.3705502194e-02 2.5623220990e-02 -1.9599329647e-22 4.0483065015e-04 -1.5315728033e-04 2.1802862649e-22
11.168164          1.4160688192e-02 2.6112949795e-02 5.9958395506e-23 1.3756641807e-02 2.6256016297e-02 -1.9768441724e-22 4.0404638568e-04 -1.4306650280e-04 2.5764281274e-22
11.296534          1.4201377055e-02 2.6738038186e-02 -2.1263051436e-23 1.3797999781e-02 2.6870905713e-02 -1.9936933981e-22 4.0337727438e-04 -1.3286752778e-04 1.7810628837e-22
11.424904          1.4215016068e-02 2.7348566309e-02 1.6802476339e-22 1.3812207254e-02 2.7471142844e-02 -2.0098486715e-22 4.0280881407e-04 -1.2257653507e-04 3.6900963054e-22
11.553273          1.4204659818e-02 2.7942597086e-02 3.1207377518e-23 1.3802342412e-02 2.8054809780e-02 -2.0252389175e-22 4.0231740627e-04 -1.1221269450e-04 2.3373126927e-22
11.681643          1.4178839154e-02 2.8516301258e-02 1.9220043859e-22 1.3776943395e-02 2.8618099365e-02 -2.0400051006e-22 4.0189575890e-04 -1.0179810657e-04 3.9620094865e-22
11.810013          1.4130980421e-02 2.9073519239e-02 2.0319523229e-22 1.3729442930e-02 2.9164867873e-02 -2.0538122195e-22 4.0153749130e-04 -9.1348634835e-05 4.0857645425e-22
11.938383          1.4071004922e-02 2.9554877508e-02 1.2688379158e-22 1.3669767770e-02 2.9635806096e-02 -2.0652469057e-22 4.0123715137e-04 -8.0928587607e-05 3.3340848215e-22
12.066752          1.3979055313e-02 3.0153290223e-02 8.7563745428e-23 1.3578168419e-02 3.0223871574e-02 -2.0797783606e-22 4.0088689412e-04 -7.0581351110e-05 2.9554158149e-22
12.195122          1.3886923715e-02 3.0642161468e-02 8.9114103781e-23 1.3486289981e-02 3.0702274448e-02 -2.0914528069e-22 4.0063373399e-04 -6.0112980065e-05 2.9825938447e-22
12.323492          1.3775049481e-02 3.1129945762e-02 -6.2260777589e-23 1.3374698726e-02 3.1179729246e-02 -2.1027373588e-22 4.0035075496e-04 -4.9783483716e-05 1.4801295829e-22
12.451861          1.3644273445e-02 3.1618739796e-02 5.0009191238e-23 1.3244209379e-02 3.1658226537e-02 -2.1137179823e-22 4.0006406661e-04 -3.9486741460e-05 2.6138098947e-22
12.580231          1.3498687794e-02 3.2097218449e-02 9.1608872467e-23 1.3098901117e-02 3.2126419097e-02 -2.1244053421e-22 3.9978667710e-04 -2.9200647712e-05 3.0404940667e-22
12.708601          1.3345157646e-02 3.2552587446e-02 3.2072716012e-23 1.2945623593e-02 3.2571516977e-02 -2.1348672801e-22 3.9953405333e-04 -1.8929530931e-05 2.4555944402e-22
12.836970          1.3187776856e-02 3.2982068502e-02 3.3938986952e-23 1.2788454991e-02 3.2990753967e-02 -2.1451154579e-22 3.9932186464e-04 -8.6854648303e-06 2.4845053274e-22
12.965340          1.3027397139e-02 3.3393190894e-02 1.7060696296e-22 1.2628240223e-02 3.3391671458e-02 -2.1552979532e-22 3.9915691666e-04 1.5194359395e-06 3.8613675828e-22
13.093710          1.2862876070e-02 3.3795470543e-02 1.8267627142e-22 1.2463838723e-02 3.3783794330e-02 -2.1657179318e-22 3.9903734648e-04 1.1676213202e-05 3.9924806460e-22
13.222080          1.2693315807e-02 3.4192437481e-02 1.1512508990e-22 1.2294358031e-02 3.4170661215e-02 -2.1765702730e-22 3.9895777607e-04 2.1776265808e-05 3.3278211721e-22
13.350449          1.2518660189e-02 3.4581525252e-02 2.0519256431e-22 1.2119745436e-02 3.4549715929e-02 -2.1877390550e-22 3.9891475332e-04 3.1809322494e-05 4.2396646981e-22
13.478819          1.2340393737e-02 3.4957368267e-02 1.1439084515e-22 1.1941484322e-02 3.4915601702e-02 -2.1990899174e-22 3.9890941567e-04 4.1766564392e-05 3.3429983689e-22
13.607189          1.2160375743e-02 3.5318080931e-02 1.2664186294e-22 1.1761428608e-02 3.5266440391e-02 -2.2105229071e-22 3.9894713404e-04 5.1640539958e-05 3.4769415365e-22
13.735558          1.1980199842e-02 3.5665293288e-02 1.3635920312e-22 1.1581165601e-02 3.5603865089e-02 -2.2221159915e-22 3.9903424109e-04 6.1428199122e-05 3.5857080227e-22
13.863928          1.1800880626e-02 3.6002370209e-02 2.9058373831e-22 1.1401705745e-02 3.5931242961e-02 -2.2340408804e-22 3.9917488138e-04 7.1127248006e-05 5.1398782636e-22
13.992298          1.1622776866e-02 3.6331462815e-02 1.0912463068e-22 1.1223406920e-02 3.6250729070e-02 -2.2464277262e-22 3.9936994597e-04 8.0733745709e-05 3.3376740330e-22
14.120668          1.1445607404e-02 3.6652829197e-02 2.6353220883e-22 1.1045990005e-02 3.6562587687e-02 -2.2592359048e-22 3.9961739858e-04 9.0241509339e-05 4.8945579931e-22
14.249037          1.1268568783e-02 3.6965822069e-02 3.1083750356e-22 1.0868654707e-02 3.6866178345e-02 -2.2722974691e-22 3.9991407575e-04 9.9643723805e-05 5.3806725048e-22
14.377407          1.1091444400e-02 3.7270193074e-02 3.2504983759e-22 1.0691185919e-02 3.7161257923e-02 -2.2853343113e-22 4.0025848114e-04 1.0893515143e-04 5.5358326872e-22
14.505777          1.0914799884e-02 3.7565541543e-02 3.3155907998e-22 1.0514147905e-02 3.7447427948e-02 -2.2982232078e-22 4.0065197949e-04 1.1811359503e-04 5.6138140076e-22
14.634146          1.0739887776e-02 3.7851708219e-02 5.7644909176e-22 1.0338789743e-02 3.7724530274e-02 -2.3109126592e-22 4.0109803274e-04 1.2717794496e-04 8.0754035768e-22
14.762516          1.0567635205e-02 3.8129180581e-02 5.4581779972e-22 1.0166035537e-02 3.7993053338e-02 -2.3234264831e-22 4.0159966820e-04 1.3612724264e-04 7.7816044803e-22
14.890886          1.0398701511e-02 3.8414153811e-02 6.0456641146e-22 9.9965460036e-03 3.8269180470e-02 -2.3346847109e-22 4.0215550759e-04 1.4497334087e-04 8.3803488255e-22
15.019255          1.0233441787e-02 3.8690736360e-02 5.5001749531e-22 9.8307869763e-03 3.8537058893e-02 -2.3457112810e-22 4.0265481077e-04 1.5367746692e-04 7.8458862341e-22
15.147625          1.0071047410e-02 3.8947912446e-02 6.5247696966e-22 9.6678799193e-03 3.8785688869e-02 -2.3573048125e-22 4.0316749049e-04 1.6222357643e-04 8.8820745091e-22
15.275995          9.9103862809e-03 3.9185763162e-02 6.3848954942e-22 9.5066011326e-03 3.9015148111e-02 -2.3694980440e-22 4.0378514832e-04 1.7061505061e-04 8.7543935383e-22
15.404365          9.7509784585e-03 3.9412323379e-02 6.9065480924e-22 9.3464370181e-03 3.9233457978e-02 -2.3817435006e-22 4.0454144041e-04 1.7886540109e-04 9.2882915929e-22
15.532734          9.5936059617e-03 3.9636015015e-02 7.9930648435e-22 9.1882055922e-03 3.9449026969e-02 -2.3933995426e-22 4.0540036946e-04 1.8698804570e-04 1.0386464386e-21
15.661104          9.4395340848e-03 3.9860032915e-02 8.3474835100e-22 9.0332367496e-03 3.9665043007e-02 -2.4041814803e-22 4.0629733518e-04 1.9498990724e-04 1.0751664990e-21
15.789474          9.2897293989e-03 4.0081551052e-02 9.2486013617e-22 8.8825389975e-03 3.9878683142e-02 -2.4142460236e-22 4.0719040147e-04 2.0286790934e-04 1.1662847385e-21
15.917843          9.1442444357e-03 4.0295210947e-02 9.4541768900e-22 8.7361610470e-03 4.0084598740e-02 -2.4239555601e-22 4.0808338871e-04 2.1061220743e-04 1.1878132450e-21
16.046213          9.0024012868e-03 4.0497421156e-02 9.7297447111e-22 8.5933888997e-03 4.0279209261e-02 -2.4335346479e-22 4.0901238710e-04 2.1821189426e-04 1.2163279359e-21
16.174583          8.8427548989e-03 4.0716206280e-02 1.0247395223e-21 8.4327581159e-03 4.0490523787e-02 -2.4445564759e-22 4.0999678300e-04 2.2568249346e-04 1.2691951699e-21
16.302953          8.7244891197e-03 4.0870567634e-02 9.8760611220e-22 8.3133159491e-03 4.0637428725e-02 -2.4521108562e-22 4.1117317057e-04 2.3313890941e-04 1.2328171978e-21
16.431322          8.6058176457e-03 4.1026297554e-02 9.1950843141e-22 8.1934227629e-03 4.0785967723e-02 -2.4593788059e-22 4.1239488275e-04 2.4032983074e-04 1.1654463120e-21
16.559692          8.4613329164e-03 4.1225473317e-02 9.8021014554e-22 8.0477157251e-03 4.0978116439e-02 -2.4683543504e-22 4.1361719128e-04 2.4735687736e-04 1.2270455806e-21
16.688062          8.3299354160e-03 4.1408521764e-02 1.1312224928e-21 7.9150084960e-03 4.1154170057e-02 -2.4762347882e-22 4.1492692007e-04 2.5435170661e-04 1.3788459716e-21
16.816431          8.2139296019e-03 4.1562865480e-02 1.0599919581e-21 7.7976246051e-03 4.1301668217e-02 -2.4827262381e-22 4.1630499672e-04 2.6119726206e-04 1.3082645819e-21
16.944801          8.1201174229e-03 4.1681350835e-02 1.0841071262e-21 7.7023597053e-03 4.1413497313e-02 -2.4875838233e-22 4.1775771761e-04 2.6785352229e-04 1.3328655085e-21
17.073171          8.0005049767e-03 4.1837276390e-02 1.0517083362e-21 7.5813280678e-03 4.1563039827e-02 -2.4941022478e-22 4.1917690888e-04 2.7423656248e-04 1.3011185610e-21
17.201540          7.8846112041e-03 4.1992523272e-02 1.1099679360e-21 7.4639365768e-03 4.1711993467e-02 -2.5004122272e-22 4.2067462732e-04 2.8052980548e-04 1.3600091587e-21
17.329910          7.7794132794e-03 4.2131589189e-02 1.1635212204e-21 7.3571760297e-03 4.1844926715e-02 -2.5057539686e-22 4.2223724969e-04 2.8666247433e-04 1.4140966172e-21
17.458280          7.6844692690e-03 4.2252102515e-02 1.1942765527e-21 7.2606116602e-03 4.1959479541e-02 -2.5099986780e-22 4.2385760883e-04 2.9262297380e-04 1.4452764205e-21
17.586650          7.5955622006e-03 4.2363249337e-02 1.0022477611e-21 7.1700391837e-03 4.2064837721e-02 -2.5136333845e-22 4.2552301690e-04 2.9841161571e-04 1.2536110995e-21
17.715019          7.5092613646e-03 4.2474565108e-02 1.0810013539e-21 7.0820380732e-03 4.2170539207e-02 -2.5172105928e-22 4.2722329136e-04 3.0402590136e-04 1.3327224131e-21
17.843389          7.4248379147e-03 4.2587792630e-02 1.2488068495e-21 6.9958808618e-03 4.2278332757e-02 -2.5208695446e-22 4.2895705293e-04 3.0945987241e-04 1.5008938039e-21
17.971759          7.3435039028e-03 4.2697726256e-02 1.1776655087e-21 6.9127746126e-03 4.2383016531e-02 -2.5243312531e-22 4.3072929025e-04 3.1470972453e-04 1.4300986340e-21
18.100128          7.2668738468e-03 4.2798784988e-02 1.2928879681e-21 6.8343299451e-03 4.2479008064e-02 -2.5272764159e-22 4.3254390167e-04 3.1977692348e-04 1.5456156097e-21
18.228498          7.1959181502e-03 4.2889962244e-02 1.2513788562e-21 6.7615179201e-03 4.2565294894e-02 -2.5296587413e-22 4.3440023011e-04 3.2466734993e-04 1.5043447303e-21
18.356868          7.1306925020e-03 4.2974454691e-02 1.4376897406e-21 6.6943982764e-03 4.2645068559e-02 -2.5316998177e-22 4.3629422565e-04 3.2938613188e-04 1.6908597224e-21
18.485237          7.0704664160e-03 4.3056110900e-02 1.4323335446e-21 6.6322445933e-03 4.2722177792e-02 -2.5336521542e-22 4.3822182273e-04 3.3393310861e-04 1.6856987600e-21
18.613607          7.0141641212e-03 4.3136205021e-02 1.4768424383e-21 6.5739825659e-03 4.2797899565e-02 -2.5355690854e-22 4.4018155527e-04 3.3830545581e-04 1.7303993468e-21
18.741977          6.9611467552e-03 4.3213273557e-02 1.3654472285e-21 6.5189729535e-03 4.2870772650e-02 -2.5373335245e-22 4.4217380166e-04 3.4250090720e-04 1.6191805810e-21
18.870347          6.9116114389e-03 4.3285198002e-02 1.0188517408e-21 6.4674127376e-03 4.2938678074e-02 -2.5388306788e-22 4.4419870136e-04 3.4651992869e-04 1.2727348087e-21
18.998716          6.8662491440e-03 4.3351246628e-02 1.2890831079e-21 6.4199941129e-03 4.3000880923e-02 -2.5400682701e-22 4.4625503110e-04 3.5036570528e-04 1.5430899349e-21
19.127086          6.8254497111e-03 4.3412505992e-02 1.1181962348e-21 6.3771094271e-03 4.3058464384e-02 -2.5411570040e-22 4.4834028400e-04 3.5404160813e-04 1.3723119352e-21
19.255456          6.7890074013e-03 4.3470669603e-02 1.1539465651e-21 6.3385558942e-03 4.3113120127e-02 -2.5422019989e-22 4.5045150705e-04 3.5754947527e-04 1.4081667650e-21
19.383825          6.7562991252e-03 4.3526664375e-02 1.0954751153e-21 6.3037130446e-03 4.3165774740e-02 -2.5432186796e-22 4.5258608055e-04 3.6088963507e-04 1.3497969833e-21
19.512195          6.7267344149e-03 4.3580267911e-02 1.1230961810e-21 6.2719923180e-03 4.3216205457e-02 -2.5441504641e-22 4.5474209695e-04 3.6406245461e-04 1.3775112275e-21
19.640565          6.7000576727e-03 4.3630737581e-02 1.0399987540e-21 6.2431399440e-03 4.3263668295e-02 -2.5449372536e-22 4.5691772871e-04 3.6706928552e-04 1.2944924794e-21
19.768935          6.6764418447e-03 4.3677704868e-02 1.1583652491e-21 6.2173311418e-03 4.3307792202e-02 -2.5455902888e-22 4.5911070292e-04 3.6991266620e-04 1.4129242779e-21
19.897304          6.6561164988e-03 4.3721514244e-02 1.1452081460e-21 6.1947981333e-03 4.3348918670e-02 -2.5461793211e-22 4.6131836553e-04 3.7259557463e-04 1.3998260781e-21
20.025674          6.6390631741e-03 4.3762894222e-02 1.1294588711e-21 6.1755250571e-03 4.3387773253e-02 -2.5467715219e-22 4.6353811701e-04 3.7512096969e-04 1.3841360233e-21
20.154044          6.6249370038e-03 4.3802425049e-02 1.1475595593e-21 6.1591697731e-03 4.3424933821e-02 -2.5473783153e-22 4.6576723069e-04 3.7749122873e-04 1.4022973908e-21
20.282413          6.6133292743e-03 4.3840237125e-02 1.1662174947e-21 6.1453262565e-03 4.3460528384e-02 -2.5479671261e-22 4.6800301777e-04 3.7970874131e-04 1.4210142073e-21
20.410783          6.6040315215e-03 4.3876135542e-02 1.1744101237e-21 6.1337883963e-03 4.3494358960e-02 -2.5485069705e-22 4.7024312522e-04 3.8177658214e-04 1.4292608207e-21
20.539153          6.5969926323e-03 4.3909994926e-02 1.2400278323e-21 6.1245076103e-03 4.3526296913e-02 -2.5489961331e-22 4.7248502194e-04 3.8369801344e-04 1.4949274456e-21
20.667522          6.5923033635e-03 4.3941971975e-02 1.4146869490e-21 6.1175771240e-03 4.3556495246e-02 -2.5494726216e-22 4.7472623956e-04 3.8547672942e-04 1.6696342112e-21
20.795892          6.5899098617e-03 4.3972422985e-02 1.3725704776e-21 6.1129454356e-03 4.3585306332e-02 -2.5499791157e-22 4.7696442605e-04 3.8711665336e-04 1.6275683892e-21
20.924262          6.5895706842e-03 4.4001664152e-02 1.3774413521e-21 6.1103736193e-03 4.3613042628e-02 -2.5505269567e-22 4.7919706492e-04 3.8862152476e-04 1.6324940478e-21
21.052632          6.5910684113e-03 4.4029851009e-02 1.5346377867e-21 6.1096470372e-03 4.3639856193e-02 -2.5511119629e-22 4.8142137406e-04 3.8999481627e-04 1.7897489830e-21
21.181001          6.5997154791e-03 4.4059509983e-02 1.4322760856e-21 6.1160754765e-03 4.3668298164e-02 -2.5516216994e-22 4.8364000263e-04 3.9121181892e-04 1.6874382555e-21
21.309371          6.6038881923e-03 4.4085632249e-02 1.4780149204e-21 6.1180628788e-03 4.3693272831e-02 -2.5522525827e-22 4.8582531357e-04 3.9235941891e-04 1.7332401787e-21
21.437741          6.6056277531e-03 4.4109042390e-02 1.4169779930e-21 6.1176326488e-03 4.3715672226e-02 -2.5530032047e-22 4.8799510433e-04 3.9337016417e-04 1.6722783135e-21
21.566110          6.6149339000e-03 4.4134210932e-02 1.4175893930e-21 6.1247690493e-03 4.3739982675e-02 -2.5537295497e-22 4.9016485076e-04 3.9422825696e-04 1.6729623480e-21
21.694480          6.6286632548e-03 4.4160182331e-02 1.3908700507e-21 6.1363529163e-03 4.3765185821e-02 -2.5544779288e-22 4.9231033853e-04 3.9499650932e-04 1.6463178436e-21
21.822850          6.6419958132e-03 4.4185326515e-02 1.5696638384e-21 6.1475746780e-03 4.3789644753e-02 -2.5553157961e-22 4.9442113515e-04 3.9568176195e-04 1.8251954180e-21
21.951220          6.6527189459e-03 4.4208725348e-02 1.5234061138e-21 6.1562194316e-03 4.3812455277e-02 -2.5562829220e-22 4.9649951429e-04 3.9627007052e-04 1.7790344059e-21