# Force           
# CofR            : (0.0000000000e+00 0.0000000000e+00 0.0000000000e+00)
#
# Time            	total_x total_y total_z	pressure_x pressure_y pressure_z	viscous_x viscous_y viscous_z
0.128370           9.8086487565e-01 1.4812714895e-03 -1.1303384765e-21 9.5881910566e-01 2.0948045462e-04 7.0637807536e-23 2.2045769992e-02 1.2717910348e-03 -1.2009762840e-21
0.256739           3.3057336716e-01 4.5707096041e-04 -8.4609415531e-22 3.3047240396e-01 1.5589821771e-04 -3.6367739795e-22 1.0096319996e-04 3.0117274270e-04 -4.8241675736e-22
0.385109           -3.7384960659e-01 1.3178234064e-04 -2.9201329537e-23 -3.6999156028e-01 1.0651443095e-04 -7.1570428686e-22 -3.8580463117e-03 2.5267909692e-05 6.8650295733e-22
0.513479           -4.9707982623e-01 4.0580102230e-05 -5.3757794523e-22 -4.9680579398e-01 1.4935808317e-04 -4.8446435487e-22 -2.7403225222e-04 -1.0877798094e-04 -5.3113590359e-23
0.641849           -1.1060097849e-01 -4.9793988555e-06 5.2049631585e-22 -1.1420439101e-01 1.4390908279e-04 1.4349840881e-22 3.6034125205e-03 -1.4888848165e-04 3.7699790704e-22
0.770218           2.8217528729e-01 6.4296211738e-05 3.2628439505e-22 2.7799471176e-01 1.6504566343e-04 4.6391074185e-22 4.1805755277e-03 -1.0074945170e-04 -1.3762634680e-22
0.898588           2.9115995932e-01 2.6244225176e-04 3.6174234950e-22 2.8886069099e-01 3.0461189941e-04 8.9950477370e-23 2.2992683316e-03 -4.2169647646e-05 2.7179187213e-22
1.026958           3.3521712155e-02 4.9824710457e-04 2.7229047510e-22 3.2949866242e-02 5.4462713720e-04 -5.0631039500e-22 5.7184591318e-04 -4.6380032631e-05 7.7860087010e-22
1.155327           -1.6601257126e-01 4.7074679192e-04 1.0415303692e-22 -1.6646561317e-01 5.6884389175e-04 -6.5487846085e-22 4.5304191245e-04 -9.8097099825e-05 7.5903149778e-22
1.283697           -1.4516678004e-01 2.2970142165e-04 2.8726937247e-23 -1.4651644412e-01 3.7213501375e-04 -2.8625107117e-22 1.3496640814e-03 -1.4243359210e-04 3.1497800842e-22
1.412067           1.0118654795e-02 2.5347965195e-05 3.2012005359e-22 8.1472822749e-03 1.5610081797e-04 1.6804418958e-22 1.9713725206e-03 -1.3075285277e-04 1.5207586401e-22
1.540436           1.1240287687e-01 1.2641397281e-04 6.4339138059e-23 1.1063792338e-01 2.1725927325e-04 2.1785594784e-22 1.7649534893e-03 -9.0845300444e-05 -1.5351680978e-22
1.668806           8.4057629187e-02 4.4463463258e-04 3.3129666172e-22 8.2891787961e-02 5.0970893349e-04 -1.0969899215e-22 1.1658412263e-03 -6.5074300912e-05 4.4099565387e-22
1.797176           -6.2664176667e-03 6.6026728356e-04 1.8016848263e-22 -7.0969468569e-03 7.4396524448e-04 -4.1352568955e-22 8.3052919016e-04 -8.3697960922e-05 5.9369417218e-22
1.925546           -5.5960153935e-02 5.8612952065e-04 4.2110116227e-22 -5.6901418280e-02 7.0229216396e-04 -3.9664426939e-22 9.4126434575e-04 -1.1616264330e-04 8.1774543166e-22
2.053915           -3.4991067979e-02 3.1866284964e-04 3.3583187411e-22 -3.6182436779e-02 4.5682847000e-04 -1.4736706455e-22 1.1913688006e-03 -1.3816562036e-04 4.8319893867e-22
2.182285           1.6606241939e-02 2.0149789930e-04 3.2591373474e-22 1.5345227093e-02 3.2761001550e-04 4.9410995681e-23 1.2610148457e-03 -1.2611211620e-04 2.7650273905e-22
2.310655           4.1002448304e-02 3.5931992935e-04 2.7334521609e-22 3.9893586315e-02 4.6721390585e-04 6.8301836750e-24 1.1088619889e-03 -1.0789397651e-04 2.6651503241e-22
2.439024           2.6137195161e-02 6.1925618405e-04 1.8855606441e-22 2.5210173280e-02 7.1984930449e-04 -1.7352737367e-22 9.2702188025e-04 -1.0059312043e-04 3.6208343807e-22
2.567394           -1.9549453130e-03 7.2140514720e-04 1.1656296085e-22 -2.8267656117e-03 8.3667091491e-04 -2.8492263230e-22 8.7182029874e-04 -1.1526576772e-04 4.0148559315e-22
2.695764           -1.4204970923e-02 6.2127006479e-04 1.2195259962e-22 -1.5132543199e-02 7.5593014843e-04 -2.4060980067e-22 9.2757227583e-04 -1.3466008363e-04 3.6256240029e-22
2.824134           -5.6020663655e-03 4.7026651143e-04 2.5286699283e-22 -6.5828467349e-03 6.1290537040e-04 -1.1844011631e-22 9.8078036939e-04 -1.4263885897e-04 3.7130710914e-22
2.952503           9.9820650929e-03 4.6454061706e-04 3.1962849521e-22 9.0219991902e-03 6.0058836736e-04 -5.3419264496e-23 9.6006590268e-04 -1.3604775029e-04 3.7304775970e-22
3.080873           1.6487132860e-02 6.1524239651e-04 2.8554847383e-22 1.5598029321e-02 7.4330221112e-04 -9.1273077777e-23 8.8910353956e-04 -1.2805981461e-04 3.7682155161e-22
3.209243           1.1481946933e-02 7.8446499274e-04 2.5281980011e-22 1.0648759838e-02 9.1357235437e-04 -1.7046621140e-22 8.3318709490e-04 -1.2910736162e-04 4.2328601150e-22
3.337612           2.9318720153e-03 8.3019682715e-04 1.6567913063e-22 2.1073157390e-03 9.6859982549e-04 -2.0457925708e-22 8.2455627629e-04 -1.3840299835e-04 3.7025838771e-22
3.465982           -5.5422230873e-04 7.7527759356e-04 1.7534150112e-22 -1.3944159457e-03 9.2281896427e-04 -1.7372896882e-22 8.4019363693e-04 -1.4754137070e-04 3.4907046994e-22
3.594352           2.2677098377e-03 7.2877546373e-04 1.9928982867e-22 1.4247727327e-03 8.7899720881e-04 -1.2213474829e-22 8.4293710503e-04 -1.5022174507e-04 3.2142457696e-22
3.722721           6.8681857314e-03 7.7905705765e-04 2.4311445499e-22 6.0484459287e-03 9.2768039046e-04 -1.0407862990e-22 8.1973980272e-04 -1.4862333280e-04 3.4719308489e-22
3.851091           9.0037857946e-03 9.0454399684e-04 2.8914186004e-22 8.2153693611e-03 1.0514083531e-03 -1.2482593855e-22 7.8841643350e-04 -1.4686435629e-04 4.1396779859e-22
3.979461           7.5952055806e-03 1.0238436048e-03 2.5608495706e-22 6.8271965230e-03 1.1743565977e-03 -1.5544763613e-22 7.6800905762e-04 -1.5051299293e-04 4.1153259319e-22
4.107831           5.0620696052e-03 1.0783723169e-03 1.0597751112e-22 4.2985742242e-03 1.2349781931e-03 -1.6356630284e-22 7.6349538102e-04 -1.5660587622e-04 2.6954381396e-22
4.236200           3.8295380408e-03 1.0926557563e-03 1.2892737153e-22 3.0666076427e-03 1.2548929738e-03 -1.4817966862e-22 7.6293039814e-04 -1.6223721751e-04 2.7710704015e-22
4.364570           4.5909648948e-03 1.1234373888e-03 1.7666784203e-22 3.8352459082e-03 1.2877837674e-03 -1.2876698395e-22 7.5571898661e-04 -1.6434637862e-04 3.0543482598e-22
4.492940           6.1629046505e-03 1.2049192972e-03 1.5791239964e-22 5.4220397618e-03 1.3693380175e-03 -1.2339436957e-22 7.4086488875e-04 -1.6441872032e-04 2.8130676922e-22
4.621309           7.0339765549e-03 1.3199161871e-03 2.7366051191e-22 6.3088971231e-03 1.4853013255e-03 -1.3257067456e-22 7.2507943180e-04 -1.6538513840e-04 4.0623118647e-22
4.749679           6.7489440303e-03 1.4301955991e-03 2.8968557356e-22 6.0346654886e-03 1.5987589638e-03 -1.4372328058e-22 7.1427854172e-04 -1.6856336477e-04 4.3340885414e-22
4.878049           5.9693981462e-03 1.5141452637e-03 2.5310583839e-22 5.2608429711e-03 1.6868912347e-03 -1.4600624377e-22 7.0855517516e-04 -1.7274597097e-04 3.9911208215e-22
5.006418           5.5572356806e-03 1.5828643776e-03 2.3739711193e-22 4.8535618182e-03 1.7589275797e-03 -1.3946648662e-22 7.0367386234e-04 -1.7606320208e-04 3.7686359855e-22
5.134788           5.8277850270e-03 1.6602292282e-03 2.0426106099e-22 5.1315738981e-03 1.8380312900e-03 -1.3200536430e-22 6.9621112889e-04 -1.7780206173e-04 3.3626642528e-22
5.263158           6.4272525708e-03 1.7625555217e-03 1.7064019763e-22 5.7408969222e-03 1.9413088112e-03 -1.3026738116e-22 6.8635564865e-04 -1.7875328943e-04 3.0090757879e-22
5.391528           6.8359721666e-03 1.8839914983e-03 1.5058248740e-22 6.1592713431e-03 2.0640554534e-03 -1.3404451822e-22 6.7670082343e-04 -1.8006395514e-04 2.8462700562e-22
5.519897           6.8589963325e-03 2.0077212897e-03 1.8412151980e-22 6.1898543566e-03 2.1898857423e-03 -1.3833935893e-22 6.6914197595e-04 -1.8216445266e-04 3.2246087873e-22
5.648267           6.6887210008e-03 2.1224200761e-03 2.9203608822e-22 6.0253043021e-03 2.3069309389e-03 -1.3919848641e-22 6.6341669879e-04 -1.8451086279e-04 4.3123457463e-22
5.776637           6.6155944308e-03 2.2364076396e-03 2.9676637776e-22 5.9576848681e-03 2.4227793665e-03 -1.3689966130e-22 6.5790956277e-04 -1.8637172693e-04 4.3366603906e-22
5.905006           6.7662847463e-03 2.3592709221e-03 2.1798709098e-22 6.1147855528e-03 2.5467627175e-03 -1.3434857714e-22 6.5149919356e-04 -1.8749179547e-04 3.5233566812e-22
6.033376           7.0476805683e-03 2.4938498541e-03 2.1717160264e-22 6.4032814332e-03 2.6821022913e-03 -1.3398188869e-22 6.4439913516e-04 -1.8825243722e-04 3.5115349132e-22
6.161746           7.2879708614e-03 2.6369618494e-03 2.1561817444e-22 6.6504070389e-03 2.8260670916e-03 -1.3568254476e-22 6.3756382249e-04 -1.8910524220e-04 3.5130071920e-22
6.290116           7.4042019971e-03 2.7846903313e-03 2.1830218607e-22 6.7725932698e-03 2.9748726748e-03 -1.3760835293e-22 6.3160872737e-04 -1.9018234349e-04 3.5591053900e-22
6.418485           7.4453303376e-03 2.9361656587e-03 2.2064521281e-22 6.8189577467e-03 3.1274097446e-03 -1.3831776839e-22 6.2637259087e-04 -1.9124408591e-04 3.5896298120e-22
6.546855           7.5096709368e-03 3.0945162349e-03 1.9670609277e-22 6.8883994642e-03 3.2865074289e-03 -1.3788959392e-22 6.2127147262e-04 -1.9199119397e-04 3.3459568669e-22
6.675225           7.6480923924e-03 3.2616686012e-03 2.2307791528e-22 7.0321728942e-03 3.4540156789e-03 -1.3737966536e-22 6.1591949821e-04 -1.9234707765e-04 3.6045758064e-22
6.803594           7.8363613956e-03 3.4369966987e-03 2.7733153199e-22 7.2259595624e-03 3.6294652179e-03 -1.3761754788e-22 6.1040183316e-04 -1.9246851922e-04 4.1494907987e-22
6.931964           8.0175116606e-03 3.6197640617e-03 2.6774978060e-22 7.4124455360e-03 3.8123025476e-03 -1.3854289476e-22 6.0506612465e-04 -1.9253848589e-04 4.0629267536e-22
7.060334           8.1598661862e-03 3.8098838549e-03 3.0899419645e-22 7.5597284228e-03 4.0024835432e-03 -1.3951455784e-22 6.0013776342e-04 -1.9259968830e-04 4.4850875428e-22
7.188703           8.2741165535e-03 4.0091274981e-03 3.4547892997e-22 7.6785618332e-03 4.2016751322e-03 -1.4004400329e-22 5.9555472030e-04 -1.9254763406e-04 4.8552293326e-22
7.317073           8.3925976307e-03 4.2183837208e-03 2.8825652578e-22 7.8014995976e-03 4.4106409192e-03 -1.4014307845e-22 5.9109803312e-04 -1.9225719833e-04 4.2839960423e-22
7.445443           8.5349588345e-03 4.4376635062e-03 3.2899340495e-22 7.9483382755e-03 4.6293612398e-03 -1.4017790628e-22 5.8662055893e-04 -1.9169773361e-04 4.6917131123e-22
7.573813           8.6953304416e-03 4.6660828987e-03 2.2894889675e-22 8.1131789586e-03 4.8570153150e-03 -1.4042960705e-22 5.8215148297e-04 -1.9093241621e-04 3.6937850380e-22
7.702182           8.8551914801e-03 4.9035284471e-03 2.7273424718e-22 8.2773714227e-03 5.0935632732e-03 -1.4087890916e-22 5.7782005735e-04 -1.9003482615e-04 4.1361315634e-22
7.830552           9.0027340218e-03 5.1503788788e-03 3.3134358623e-22 8.4290207856e-03 5.3393981040e-03 -1.4133206354e-22 5.7371323615e-04 -1.8901922518e-04 4.7267564977e-22
7.958922           9.1386467115e-03 5.4090378612e-03 2.8998604604e-22 8.5688378852e-03 5.5968770713e-03 -1.4161758064e-22 5.6980882636e-04 -1.8783921004e-04 4.3160362668e-22
8.087291           9.2740081927e-03 5.6794203566e-03 2.3895420888e-22 8.7079853206e-03 5.8658613266e-03 -1.4177517302e-22 5.6602287211e-04 -1.8644097007e-04 3.8072938190e-22
8.215661           9.4153325268e-03 5.9617179542e-03 2.5936943248e-22 8.8530356834e-03 6.1465274445e-03 -1.4190320799e-22 5.6229684341e-04 -1.8480949037e-04 4.0127264047e-22
8.344031           9.5613850780e-03 6.2555253837e-03 2.0227972397e-22 9.0027466401e-03 6.4384931344e-03 -1.4210922319e-22 5.5863843797e-04 -1.8296775077e-04 3.4438894716e-22
8.472401           9.7065100636e-03 6.5606979417e-03 2.2699324723e-22 9.1514149974e-03 6.7416415479e-03 -1.4237783279e-22 5.5509506620e-04 -1.8094360619e-04 3.6937108002e-22
8.600770           9.8458287140e-03 6.8785494401e-03 1.7716854505e-22 9.2941288562e-03 7.0572893948e-03 -1.4266587653e-22 5.5169985779e-04 -1.7873995475e-04 3.1983442158e-22
8.729140           9.9794447372e-03 7.2100798709e-03 2.2302039888e-22 9.4309995171e-03 7.3864142993e-03 -1.4291112915e-22 5.4844522008e-04 -1.7633442843e-04 3.6593152804e-22
8.857510           1.0110183508e-02 7.5561446246e-03 1.7592765082e-22 9.5648844488e-03 7.7298457794e-03 -1.4313573593e-22 5.4529905894e-04 -1.7370115478e-04 3.1906338675e-22
8.985879           1.0241225212e-02 7.9161028047e-03 2.6374638715e-22 9.6989872710e-03 8.0869334157e-03 -1.4336872206e-22 5.4223794142e-04 -1.7083061103e-04 4.0711510921e-22
9.114249           1.0371925291e-02 8.2901351036e-03 1.9990412689e-22 9.8326619392e-03 8.4578645720e-03 -1.4363980657e-22 5.3926335211e-04 -1.6772946839e-04 3.4354393347e-22
9.242619           1.0500771263e-02 8.6777310613e-03 2.5223891495e-22 9.9643788357e-03 8.8421378389e-03 -1.4395335070e-22 5.3639242709e-04 -1.6440677761e-04 3.9619226564e-22
9.370988           1.0626060348e-02 9.0797584469e-03 1.3962495656e-22 1.0092422316e-02 9.2406200512e-03 -1.4429508039e-22 5.3363803207e-04 -1.6086160429e-04 2.8392003695e-22
9.499358           1.0747631382e-02 9.4966886160e-03 5.8722071278e-23 1.0216633372e-02 9.6537715400e-03 -1.4465101082e-22 5.3099800974e-04 -1.5708292403e-04 2.0337308210e-22
9.627728           1.0866276342e-02 9.9290082408e-03 2.5838579950e-23 1.0337815863e-02 1.0082066457e-02 -1.4501153982e-22 5.2846047896e-04 -1.5305821596e-04 1.7085011977e-22
9.756098           1.0983636949e-02 1.0375728689e-02 8.5868083266e-23 1.0457620018e-02 1.0524510679e-02 -1.4540716646e-22 5.2601693055e-04 -1.4878199019e-04 2.3127524973e-22
9.884467           1.1099219837e-02 1.0836666871e-02 1.1146679792e-22 1.0575552105e-02 1.0980923165e-02 -1.4583538406e-22 5.2366773190e-04 -1.4425629391e-04 2.5730218198e-22
10.012837          1.1205700993e-02 1.1285175817e-02 4.2583823759e-23 1.0684287930e-02 1.1424683485e-02 -1.4625612467e-22 5.2141306307e-04 -1.3950766794e-04 1.8883994843e-22
10.141207          1.1322577754e-02 1.1806103425e-02 1.0212240559e-22 1.0803321673e-02 1.1940604136e-02 -1.4680276905e-22 5.1925608076e-04 -1.3450071170e-04 2.4892517464e-22
10.269576          1.1427384770e-02 1.2298758348e-02 1.7047065945e-22 1.0910171582e-02 1.2427983716e-02 -1.4732250271e-22 5.1721318882e-04 -1.2922536884e-04 3.1779316216e-22
10.397946          1.1533613882e-02 1.2811302914e-02 2.4675248501e-22 1.1018351722e-02 1.2935016826e-02 -1.4790308841e-22 5.1526215983e-04 -1.2371391188e-04 3.9465557342e-22
10.526316          1.1639372839e-02 1.3346185378e-02 2.9887703723e-22 1.1125963218e-02 1.3464128754e-02 -1.4854371127e-22 5.1340962076e-04 -1.1794337592e-04 4.4742074849e-22
10.654685          1.1744231128e-02 1.3893553622e-02 2.9659916658e-22 1.1232572337e-02 1.4005463868e-02 -1.4924821859e-22 5.1165879080e-04 -1.1191024562e-04 4.4584738516e-22
10.783055          1.1844571903e-02 1.4448886654e-02 3.4890375903e-22 1.1334561462e-02 1.4554510254e-02 -1.4998973838e-22 5.1001044103e-04 -1.0562360072e-04 4.9889349741e-22
10.911425          1.1942910308e-02 1.5008234340e-02 3.8398451493e-22 1.1434444632e-02 1.5107328877e-02 -1.5076244411e-22 5.0846567587e-04 -9.9094536788e-05 5.3474695904e-22
11.039795          1.2038261364e-02 1.5576592331e-02 2.3079661173e-22 1.1531236432e-02 1.5668920188e-02 -1.5153794023e-22 5.0702493221e-04 -9.2327857518e-05 3.8233455196e-22
11.168164          1.2133424299e-02 1.6154088626e-02 2.2033823786e-22 1.1627735970e-02 1.6239412189e-02 -1.5232464986e-22 5.0568832975e-04 -8.5323563604e-05 3.7266288772e-22
11.296534          1.2226711805e-02 1.6740881010e-02 1.6988768439e-22 1.1722256517e-02 1.6818964065e-02 -1.5310630446e-22 5.0445528874e-04 -7.8083054991e-05 3.2299398886e-22
11.424904          1.2316081690e-02 1.7332220758e-02 9.8501085671e-23 1.1812758656e-02 1.7402767696e-02 -1.5391221941e-22 5.0332303377e-04 -7.0546937568e-05 2.5241330508e-22
11.553273          1.2400576180e-02 1.7926705184e-02 1.3931838850e-22 1.1898297447e-02 1.7989520911e-02 -1.5470441395e-22 5.0227873319e-04 -6.2815726866e-05 2.9402280245e-22
11.681643          1.2479867000e-02 1.8522747849e-02 7.0565773500e-23 1.1978538557e-02 1.8577638229e-02 -1.5545538146e-22 5.0132844273e-04 -5.4890379279e-05 2.2602115496e-22
11.810013          1.2556737417e-02 1.9117820512e-02 1.0286579532e-23 1.2056257372e-02 1.9164582715e-02 -1.5619620565e-22 5.0048004487e-04 -4.6762203647e-05 1.6648278518e-22
11.938383          1.2630152598e-02 1.9709273087e-02 9.1245794008e-23 1.2130418171e-02 1.9747706236e-02 -1.5696410235e-22 4.9973442667e-04 -3.8433149412e-05 2.4820989635e-22
12.066752          1.2698070750e-02 2.0295951708e-02 4.7013187429e-23 1.2198988091e-02 2.0325872916e-02 -1.5776904561e-22 4.9908265933e-04 -2.9921207606e-05 2.0478223303e-22
12.195122          1.2760938487e-02 2.0876947837e-02 2.1862426062e-22 1.2262423572e-02 2.0898199320e-02 -1.5859486771e-22 4.9851491426e-04 -2.1251483764e-05 3.7721912833e-22
12.323492          1.2815882805e-02 2.1451883269e-02 1.9619376127e-22 1.2317857987e-02 2.1464327180e-02 -1.5937975888e-22 4.9802481865e-04 -1.2443910876e-05 3.5557352015e-22
12.451861          1.2862150682e-02 2.2015958124e-02 2.6939601173e-22 1.2364542316e-02 2.2019470758e-02 -1.6010004303e-22 4.9760836566e-04 -3.5126335194e-06 4.2949605477e-22
12.580231          1.2900384002e-02 2.2563754960e-02 2.6643162152e-22 1.2403120469e-02 2.2558227765e-02 -1.6073142727e-22 4.9726353378e-04 5.5271947168e-06 4.2716304879e-22
12.708601          1.2926111682e-02 2.3097566775e-02 1.3387217654e-22 1.2429129056e-02 2.3082905702e-02 -1.6123989327e-22 4.9698262593e-04 1.4661072729e-05 2.9511206980e-22
12.836970          1.2939919232e-02 2.3614423185e-02 1.3595081237e-22 1.2443165813e-02 2.3590551857e-02 -1.6168482963e-22 4.9675341915e-04 2.3871328285e-05 2.9763564200e-22
12.965340          1.2943914725e-02 2.4111819715e-02 1.4712454694e-22 1.2447347783e-02 2.4078685791e-02 -1.6212529466e-22 4.9656694195e-04 3.3133923878e-05 3.0924984161e-22
13.093710          1.2934228841e-02 2.4590416620e-02 1.6255559634e-22 1.2437814641e-02 2.4547990884e-02 -1.6253958356e-22 4.9641420010e-04 4.2425735633e-05 3.2509517990e-22
13.222080          1.2910356330e-02 2.5044220929e-02 2.5501850077e-22 1.2414071172e-02 2.4992496304e-02 -1.6292157952e-22 4.9628515792e-04 5.1724625053e-05 4.1794008029e-22
13.350449          1.2870797583e-02 2.5470818245e-02 2.6023748442e-22 1.2374626994e-02 2.5409810440e-02 -1.6319991164e-22 4.9617058899e-04 6.1007804969e-05 4.2343739606e-22
13.478819          1.2813182604e-02 2.5870273778e-02 2.3206711082e-22 1.2317124249e-02 2.5800019675e-02 -1.6333688508e-22 4.9605835418e-04 7.0254102978e-05 3.9540399590e-22
13.607189          1.2737715854e-02 2.6241219502e-02 1.8050080902e-22 1.2241780853e-02 2.6161777233e-02 -1.6338326734e-22 4.9593500021e-04 7.9442269439e-05 3.4388407636e-22
13.735558          1.2656161977e-02 2.6542515836e-02 1.8553206882e-22 1.2160363620e-02 2.6454002222e-02 -1.6337375336e-22 4.9579835705e-04 8.8513614383e-05 3.4890582217e-22
13.863928          1.2533279273e-02 2.6903965650e-02 3.4290581967e-22 1.2037711452e-02 2.6806495982e-02 -1.6345158152e-22 4.9556782124e-04 9.7469667797e-05 5.0635740118e-22
13.992298          1.2413500569e-02 2.7174777864e-02 2.5565512472e-22 1.1918176747e-02 2.7068432007e-02 -1.6351285487e-22 4.9532382124e-04 1.0634585678e-04 4.1916797960e-22
14.120668          1.2242355404e-02 2.7453467960e-02 3.4522596904e-22 1.1747386920e-02 2.7338415997e-02 -1.6362766779e-22 4.9496848454e-04 1.1505196289e-04 5.0885363683e-22
14.249037          1.2087511514e-02 2.7635854333e-02 3.9243970796e-22 1.1592919913e-02 2.7512243946e-02 -1.6363711649e-22 4.9459160068e-04 1.2361038667e-04 5.5607682445e-22
14.377407          1.1907281072e-02 2.7794917594e-02 5.0857892014e-22 1.1413158395e-02 2.7662995633e-02 -1.6359099971e-22 4.9412267703e-04 1.3192196050e-04 6.7216991985e-22
14.505777          1.1698753731e-02 2.7945173106e-02 4.2219955811e-22 1.1205204490e-02 2.7805145346e-02 -1.6349610313e-22 4.9354924165e-04 1.4002776074e-04 5.8569566124e-22
14.634146          1.1433044667e-02 2.8092772730e-02 5.1474378288e-22 1.0940218582e-02 2.7944830387e-02 -1.6340958617e-22 4.9282608441e-04 1.4794234288e-04 6.7815336905e-22
14.762516          1.1221071803e-02 2.8167168807e-02 5.1070177811e-22 1.0729011732e-02 2.8011503539e-02 -1.6329584038e-22 4.9206007093e-04 1.5566526851e-04 6.7399761849e-22
14.890886          1.0992613197e-02 2.8199153975e-02 5.9699299410e-22 1.0501405446e-02 2.8036063621e-02 -1.6322119112e-22 4.9120775092e-04 1.6309035375e-04 7.6021418522e-22
15.019255          1.0696988037e-02 2.8204512793e-02 7.3114905139e-22 1.0206772435e-02 2.8034275552e-02 -1.6316081068e-22 4.9021560258e-04 1.7023724115e-04 8.9430986207e-22
15.147625          1.0450942312e-02 2.8189005617e-02 6.7733454794e-22 9.9617905664e-03 2.8011863419e-02 -1.6307859544e-22 4.8915174554e-04 1.7714219735e-04 8.4041314338e-22
15.275995          1.0148985559e-02 2.8146052393e-02 6.7963576541e-22 9.6610331446e-03 2.7962314907e-02 -1.6293833239e-22 4.8795241454e-04 1.8373748567e-04 8.4257409780e-22
15.404365          9.8995682060e-03 2.8084165910e-02 7.0125823907e-22 9.4128800935e-03 2.7894091294e-02 -1.6278886551e-22 4.8668811256e-04 1.9007461525e-04 8.6404710458e-22
15.532734          9.5904853657e-03 2.7978784882e-02 7.8738999708e-22 9.1051909870e-03 2.7782707118e-02 -1.6256543580e-22 4.8529437876e-04 1.9607776382e-04 9.4995543288e-22
15.661104          9.2988130377e-03 2.7847466172e-02 7.4082794980e-22 8.8150088408e-03 2.7645682046e-02 -1.6234814187e-22 4.8380419689e-04 2.0178412564e-04 9.0317609167e-22
15.789474          9.0644883419e-03 2.7713930304e-02 9.4379809543e-22 8.5822095722e-03 2.7506735458e-02 -1.6218134811e-22 4.8227876961e-04 2.0719484635e-04 1.1059794435e-21
15.917843          8.8056043817e-03 2.7551698125e-02 9.3845052008e-22 8.3249163890e-03 2.7339416980e-02 -1.6197972623e-22 4.8068799276e-04 2.1228114498e-04 1.1004302463e-21
16.046213          8.5203781702e-03 2.7362910806e-02 9.4661723634e-22 8.0413863518e-03 2.7145877622e-02 -1.6170787836e-22 4.7899181844e-04 2.1703318446e-04 1.1083251147e-21
16.174583          8.2326988239e-03 2.7153096986e-02 9.3192551415e-22 7.7555147154e-03 2.6931660400e-02 -1.6138876171e-22 4.7718410857e-04 2.2143658532e-04 1.0933142759e-21
16.302953          7.9682855158e-03 2.6926463770e-02 1.0100622436e-21 7.4929838319e-03 2.6700964653e-02 -1.6106092907e-22 4.7530168387e-04 2.2549911676e-04 1.1711231727e-21
16.431322          7.7359501792e-03 2.6685901873e-02 1.1139071167e-21 7.2625545481e-03 2.6456656297e-02 -1.6074712963e-22 4.7339563106e-04 2.2924557606e-04 1.2746542463e-21
16.559692          7.5285309735e-03 2.6433520641e-02 1.0946626661e-21 7.0570306496e-03 2.6200820801e-02 -1.6044284636e-22 4.7150032389e-04 2.3269984067e-04 1.2551055125e-21
16.688062          7.3319828309e-03 2.6172223088e-02 1.1842134097e-21 6.8623621447e-03 2.5936350534e-02 -1.6011485930e-22 4.6962068617e-04 2.3587255351e-04 1.3443282690e-21
16.816431          7.1370670013e-03 2.5903182328e-02 1.1185608301e-21 6.6693254179e-03 2.5664422334e-02 -1.5972997564e-22 4.6774158333e-04 2.3875999408e-04 1.2782908057e-21
16.944801          6.9467623835e-03 2.5626012073e-02 1.2388233894e-21 6.4809115272e-03 2.5384660552e-02 -1.5928415721e-22 4.6585085638e-04 2.4135152037e-04 1.3981075467e-21
17.073171          6.7733851408e-03 2.5340010468e-02 1.2457792413e-21 6.3094281590e-03 2.5096369421e-02 -1.5882580958e-22 4.6395698178e-04 2.4364104693e-04 1.4046050509e-21
17.201540          6.6269681181e-03 2.5047056905e-02 1.3501208096e-21 6.1648801549e-03 2.4801421623e-02 -1.5839672225e-22 4.6208796319e-04 2.4563528290e-04 1.5085175319e-21
17.329910          6.5062558303e-03 2.4750255204e-02 1.4516171646e-21 6.0459829157e-03 2.4502903273e-02 -1.5801533642e-22 4.6027291464e-04 2.4735193124e-04 1.6096325010e-21
17.458280          6.4023328393e-03 2.4452315399e-02 1.4351532695e-21 5.9438078186e-03 2.4203504297e-02 -1.5764009097e-22 4.5852502066e-04 2.4881110235e-04 1.5927933604e-21
17.586650          6.3079560417e-03 2.4155381393e-02 1.4193352853e-21 5.8511153705e-03 2.3905353732e-02 -1.5721641287e-22 4.5684067120e-04 2.5002766130e-04 1.5765516982e-21
17.715019          6.2245480784e-03 2.3862129195e-02 1.4123116385e-21 5.7693349890e-03 2.3611118994e-02 -1.5674501327e-22 4.5521308941e-04 2.5101020078e-04 1.5690566518e-21
17.843389          6.1574461104e-03 2.3574602824e-02 1.4908595816e-21 5.7038022206e-03 2.3322837289e-02 -1.5626259177e-22 4.5364388978e-04 2.5176553480e-04 1.6471221733e-21
17.971759          6.1120828988e-03 2.3293275003e-02 1.5190980655e-21 5.6599367424e-03 2.3040972291e-02 -1.5583125163e-22 4.5214615634e-04 2.5230271186e-04 1.6749293172e-21
18.100128          6.0875246368e-03 2.3018353284e-02 1.5351644299e-21 5.6367879427e-03 2.2765718343e-02 -1.5547461971e-22 4.5073669407e-04 2.5263494091e-04 1.6906390496e-21
18.228498          6.0758939896e-03 2.2750015985e-02 1.4793996561e-21 5.6264709983e-03 2.2497237742e-02 -1.5515454065e-22 4.4942299129e-04 2.5277824324e-04 1.6345541967e-21
18.356868          6.0703813557e-03 2.2490771140e-02 1.4390125439e-21 5.6221812886e-03 2.2238020901e-02 -1.5482251879e-22 4.4820006710e-04 2.5275023868e-04 1.5938350627e-21
18.485237          6.0709519331e-03 2.2243774854e-02 1.4468742820e-21 5.6238929064e-03 2.1991206671e-02 -1.5445123183e-22 4.4705902672e-04 2.5256818255e-04 1.6013255139e-21
18.613607          6.0853960282e-03 2.2011373876e-02 1.5132988592e-21 5.6393963556e-03 2.1759126189e-02 -1.5408398529e-22 4.4599967263e-04 2.5224768689e-04 1.6673828445e-21
18.741977          6.1265383700e-03 2.1767443167e-02 1.6463677202e-21 5.6814993418e-03 2.1515663741e-02 -1.5379489183e-22 4.4503902822e-04 2.5177942606e-04 1.8001626120e-21
18.870347          6.1827792455e-03 2.1569419276e-02 1.6900125110e-21 5.7385893508e-03 2.1318219973e-02 -1.5368456438e-22 4.4418989468e-04 2.5119930304e-04 1.8436970753e-21
18.998716          6.2316011336e-03 2.1419850226e-02 1.6701032372e-21 5.7881650195e-03 2.1169281067e-02 -1.5362049844e-22 4.4343611405e-04 2.5056915938e-04 1.8237237356e-21
19.127086          6.2806804279e-03 2.1256013612e-02 1.6776793805e-21 5.8379202621e-03 2.1006130209e-02 -1.5350250397e-22 4.4276016579e-04 2.4988340285e-04 1.8311818845e-21
19.255456          6.3415942088e-03 2.1055407988e-02 1.6460776562e-21 5.8994288580e-03 2.0806324562e-02 -1.5325195743e-22 4.4216535082e-04 2.4908342612e-04 1.7993296137e-21
19.383825          6.3963418753e-03 2.0908687676e-02 1.6713653983e-21 5.9546981732e-03 2.0660491117e-02 -1.5305225406e-22 4.4164370214e-04 2.4819655913e-04 1.8244176523e-21
19.512195          6.4759979555e-03 2.0770264889e-02 1.6248672887e-21 6.0347903108e-03 2.0523003086e-02 -1.5292891691e-22 4.4120764470e-04 2.4726180240e-04 1.7777962056e-21
19.640565          6.5707884775e-03 2.0667223440e-02 1.6956094452e-21 6.1299166010e-03 2.0420918965e-02 -1.5303905183e-22 4.4087187648e-04 2.4630447494e-04 1.8486484970e-21
19.768935          6.6718373188e-03 2.0582438105e-02 1.7482652154e-21 6.2312005047e-03 2.0337090316e-02 -1.5330198891e-22 4.4063681415e-04 2.4534778911e-04 1.9015672043e-21
19.897304          6.7801446711e-03 2.0509311270e-02 1.7399538843e-21 6.3396321743e-03 2.0264918463e-02 -1.5349711840e-22 4.4051249683e-04 2.4439280654e-04 1.8934510027e-21
20.025674          6.8770885306e-03 2.0437856480e-02 1.6137003345e-21 6.4366309419e-03 2.0194422718e-02 -1.5356417955e-22 4.4045758868e-04 2.4343376221e-04 1.7672645140e-21
20.154044          6.9610817643e-03 2.0370631629e-02 1.5702762220e-21 6.5206301410e-03 2.0128169284e-02 -1.5354814105e-22 4.4045162334e-04 2.4246234424e-04 1.7238243631e-21
20.282413          7.0411329311e-03 2.0317902836e-02 1.5907143652e-21 6.6006426541e-03 2.0076416139e-02 -1.5355606172e-22 4.4049027701e-04 2.4148669695e-04 1.7442704269e-21
20.410783          7.1274502577e-03 2.0284544232e-02 1.5443487957e-21 6.6868693483e-03 2.0044017494e-02 -1.5365654329e-22 4.4058090936e-04 2.4052673851e-04 1.6980053389e-21
20.539153          7.2229786714e-03 2.0266733411e-02 1.6823445084e-21 6.7822476165e-03 2.0027135166e-02 -1.5382818587e-22 4.4073105490e-04 2.3959824450e-04 1.8361726943e-21
20.667522          7.3085392511e-03 2.0258765810e-02 1.7755891164e-21 6.8676116712e-03 2.0020059936e-02 -1.5397783160e-22 4.4092757987e-04 2.3870587412e-04 1.9295669480e-21
20.795892          7.4166125117e-03 2.0250404431e-02 1.6676952979e-21 6.9754321829e-03 2.0012557287e-02 -1.5414572812e-22 4.4118032874e-04 2.3784714351e-04 1.8218410260e-21
20.924262          7.4992280399e-03 2.0250436577e-02 1.7111391981e-21 7.0577532727e-03 2.0013426199e-02 -1.5424343011e-22 4.4147476720e-04 2.3701037855e-04 1.8653826282e-21
21.052632          7.5795781676e-03 2.0258624914e-02 1.6155355859e-21 7.1377828124e-03 2.0022415176e-02 -1.5431275294e-22 4.4179535522e-04 2.3620973811e-04 1.7698483388e-21
21.181001          7.6600188348e-03 2.0274354455e-02 1.5903352966e-21 7.2178725407e-03 2.0038900011e-02 -1.5438662223e-22 4.4214629410e-04 2.3545444389e-04 1.7447219188e-21
21.309371          7.7533415407e-03 2.0298830807e-02 1.6283193905e-21 7.3108030625e-03 2.0064093628e-02 -1.5449749325e-22 4.4253847821e-04 2.3473717925e-04 1.7828168837e-21
21.437741          7.8236510197e-03 2.0328902909e-02 1.6182459474e-21 7.3806960406e-03 2.0094848084e-02 -1.5461857134e-22 4.4295497910e-04 2.3405482500e-04 1.7728645187e-21
21.566110          7.8930875172e-03 2.0362424516e-02 1.6199026415e-21 7.4497067060e-03 2.0129007914e-02 -1.5475471437e-22 4.4338081116e-04 2.3341660227e-04 1.7746573559e-21
21.694480          7.9640535528e-03 2.0395595149e-02 1.6010719316e-21 7.5202310445e-03 2.0162777169e-02 -1.5488151298e-22 4.4382250836e-04 2.3281797943e-04 1.7559534446e-21
21.822850          8.0342857611e-03 2.0427328639e-02 1.4518468106e-21 7.5900028562e-03 2.0195081243e-02 -1.5497072420e-22 4.4428290492e-04 2.3224739686e-04 1.6068175348e-21
21.951220          8.0991216537e-03 2.0459341725e-02 1.4337562075e-21 7.6543624230e-03 2.0227629058e-02 -1.5502343720e-22 4.4475923072e-04 2.3171266673e-04 1.5887796447e-21