# Force           
# CofR            : (0.0000000000e+00 0.0000000000e+00 0.0000000000e+00)
#
# Time            	total_x total_y total_z	pressure_x pressure_y pressure_z	viscous_x viscous_y viscous_z
0.128370           9.8086845273e-01 4.4443597909e-03 -8.5292024734e-22 9.5881911150e-01 6.2844389539e-04 6.9137384372e-23 2.2049341236e-02 3.8159158955e-03 -9.2205763171e-22
0.256739           3.3065436507e-01 1.4074191363e-03 -1.1219850328e-22 3.3052288151e-01 4.7450695856e-04 -3.6465739269e-22 1.3148355292e-04 9.3291217774e-04 2.5245888940e-22
0.385109           -3.7427528755e-01 4.0455564410e-04 -7.3649783813e-22 -3.7049773163e-01 3.2097428256e-04 -7.1808111529e-22 -3.7775559200e-03 8.3581361549e-05 -1.8416722844e-23
0.513479           -4.9775531360e-01 1.0964793879e-04 5.3848221408e-22 -4.9748323468e-01 4.2092268919e-04 -4.8761893471e-22 -2.7207892146e-04 -3.1127475040e-04 1.0261011488e-21
0.641849           -1.1072964001e-01 -1.4234486973e-05 -9.3686856783e-22 -1.1427650124e-01 4.1438423818e-04 1.3851747708e-22 3.5468612264e-03 -4.2861872516e-04 -1.0753860449e-21
0.770218           2.8254318612e-01 1.3942527711e-04 -4.5444845502e-22 2.7840707380e-01 4.3872078107e-04 4.5591697651e-22 4.1361123284e-03 -2.9929550396e-04 -9.1036543153e-22
0.898588           2.9163768659e-01 6.9214552131e-04 -2.1415444507e-22 2.8934218313e-01 8.2280492865e-04 7.8465269647e-23 2.2955034605e-03 -1.3065940734e-04 -2.9261971471e-22
1.026958           3.3507056857e-02 1.3746473486e-03 -4.4362144567e-22 3.2918270392e-02 1.5010976658e-03 -5.1858981498e-22 5.8878646521e-04 -1.2645031726e-04 7.4968369309e-23
1.155327           -1.6630264321e-01 1.3556624954e-03 5.8679626536e-23 -1.6675578405e-01 1.6167504783e-03 -6.6416113270e-22 4.5314083963e-04 -2.6108798293e-04 7.2284075924e-22
1.283697           -1.4516446740e-01 7.0078825971e-04 2.4219095717e-22 -1.4648348963e-01 1.0855391798e-03 -2.9234547748e-22 1.3190222318e-03 -3.8475092014e-04 5.3453643465e-22
1.412067           1.0514100040e-02 8.3678485186e-05 9.2605491351e-23 8.5896067103e-03 4.4436411136e-04 1.5971986083e-22 1.9244933294e-03 -3.6068562618e-04 -6.7114369477e-23
1.540436           1.1305125675e-01 2.7825994818e-04 7.7306533117e-23 1.1132899254e-01 5.3342116173e-04 2.0256735616e-22 1.7222642079e-03 -2.5516121355e-04 -1.2526082304e-22
1.668806           8.4504307517e-02 1.1346681312e-03 -1.1995652257e-22 8.3369856699e-02 1.3159235788e-03 -1.2798050869e-22 1.1344508178e-03 -1.8125544766e-04 8.0239861177e-24
1.797176           -6.2297413838e-03 1.7957556859e-03 -3.7853164548e-22 -7.0303144762e-03 2.0198604983e-03 -4.3162601085e-22 8.0057309244e-04 -2.2410481240e-04 5.3094365374e-23
1.925546           -5.6057924444e-02 1.6713408963e-03 -1.3934026683e-22 -5.6961693232e-02 1.9804194685e-03 -4.1175832317e-22 9.0376878815e-04 -3.0907857222e-04 2.7241805634e-22
2.053915           -3.4847691297e-02 9.5761531150e-04 -8.2206272004e-23 -3.5993070999e-02 1.3261682511e-03 -1.5936462140e-22 1.1453797016e-03 -3.6855293959e-04 7.7158349396e-23
2.182285           1.6211710110e-02 5.6458409418e-04 -6.6732614713e-23 1.4999985647e-02 9.0337130118e-04 3.4155391358e-23 1.2117244630e-03 -3.3878720701e-04 -1.0088800607e-22
2.310655           4.2047380220e-02 9.4978125069e-04 -1.5850428869e-22 4.0982336221e-02 1.2246133342e-03 -7.4236439110e-24 1.0650439990e-03 -2.7483208352e-04 -1.5108064478e-22
2.439024           2.7388653596e-02 1.6906614284e-03 -1.7330258929e-22 2.6505601827e-02 1.9423112091e-03 -1.9009662348e-22 8.8305176848e-04 -2.5164978075e-04 1.6794034184e-23
2.567394           -1.4043100226e-03 2.0408313857e-03 -4.6631482718e-22 -2.2261317170e-03 2.3306722886e-03 -3.0392593598e-22 8.2182169435e-04 -2.8984090289e-04 -1.6238889119e-22
2.695764           -1.4265256354e-02 1.7952947521e-03 -3.9340446509e-22 -1.5137405949e-02 2.1387143855e-03 -2.5911960777e-22 8.7214959482e-04 -3.4341963335e-04 -1.3428485733e-22
2.824134           -5.6563072235e-03 1.3416823754e-03 -2.2191981548e-23 -6.5805291742e-03 1.7096475928e-03 -1.3480080950e-22 9.2422195073e-04 -3.6796521738e-04 1.1260882795e-22
2.952503           1.0412813536e-02 1.2635031958e-03 -8.7970416802e-23 9.5092591051e-03 1.6158512418e-03 -6.9539268302e-23 9.0355443127e-04 -3.5234804603e-04 -1.8431148500e-23
3.080873           1.7284578494e-02 1.6469883278e-03 -9.0766224975e-23 1.6453889302e-02 1.9774800017e-03 -1.1025313281e-22 8.3068919188e-04 -3.3049167392e-04 1.9486907833e-23
3.209243           1.2278736185e-02 2.1350004388e-03 -2.4737633589e-22 1.1509655183e-02 2.4659585224e-03 -1.9294460627e-22 7.6908100168e-04 -3.3095808363e-04 -5.4431729628e-23
3.337612           3.5084086341e-03 2.2977939750e-03 -2.0315150629e-22 2.7538118635e-03 2.6518886272e-03 -2.2792180470e-22 7.5459677064e-04 -3.5409465216e-04 2.4770298409e-23
3.465982           -9.8521679965e-05 2.1473904049e-03 8.7652880827e-24 -8.6466256654e-04 2.5252197369e-03 -1.9520501461e-22 7.6614088657e-04 -3.7782933200e-04 2.0397030269e-22
3.594352           2.8277440747e-03 1.9810153756e-03 -6.9238457646e-23 2.0599923193e-03 2.3656704366e-03 -1.4136920999e-22 7.6775175539e-04 -3.8465506100e-04 7.2130752341e-23
3.722721           7.6130619648e-03 2.0696016247e-03 -1.8711651510e-22 6.8703346627e-03 2.4488484273e-03 -1.2366000520e-22 7.4272730215e-04 -3.7924680260e-04 -6.3456509906e-23
3.851091           9.8539354592e-03 2.3968538829e-03 -5.4240638800e-23 9.1460935992e-03 2.7694261418e-03 -1.4711666136e-22 7.0784185999e-04 -3.7257225887e-04 9.2876022558e-23
3.979461           8.4590114279e-03 2.7246624193e-03 -1.1476823092e-22 7.7766713362e-03 3.1044270979e-03 -1.8055998292e-22 6.8234009170e-04 -3.7976467860e-04 6.5791751998e-23
4.107831           5.9070543505e-03 2.8621234274e-03 -1.3773700664e-22 5.2339605130e-03 3.2561061990e-03 -1.8940449865e-22 6.7309383746e-04 -3.9398277165e-04 5.1667492014e-23
4.236200           4.6989185319e-03 2.8655306863e-03 -1.4972649572e-22 4.0302275969e-03 3.2727187801e-03 -1.7278618817e-22 6.6869093501e-04 -4.0718809382e-04 2.3059692452e-23
4.364570           5.5430898518e-03 2.8989325487e-03 -3.3430302709e-22 4.8842597738e-03 3.3100920183e-03 -1.5185969685e-22 6.5883007800e-04 -4.1115946961e-04 -1.8244333023e-22
4.492940           7.2096585768e-03 3.0764359678e-03 -1.9734197108e-22 6.5685596726e-03 3.4858771793e-03 -1.4615952084e-22 6.4109890419e-04 -4.0944121150e-04 -5.1182450234e-23
4.621309           8.1466070582e-03 3.3631209790e-03 -1.8008038914e-22 7.5252364168e-03 3.7728858245e-03 -1.5637696157e-22 6.2137064141e-04 -4.0976484547e-04 -2.3703427571e-23
4.749679           7.9010650079e-03 3.6388418145e-03 -2.3773380951e-22 7.2952248112e-03 4.0546166030e-03 -1.6890232971e-22 6.0584019672e-04 -4.1577478844e-04 -6.8831479804e-23
4.878049           7.1584082265e-03 3.8334155795e-03 -1.5780851577e-22 6.5628592678e-03 4.2579966045e-03 -1.7179814031e-22 5.9554895862e-04 -4.2458102505e-04 1.3989624540e-23
5.006418           6.8041461671e-03 3.9729892329e-03 -2.0262035638e-22 6.2173912974e-03 4.4042902126e-03 -1.6494772024e-22 5.8675486976e-04 -4.3130097978e-04 -3.7672636134e-23
5.134788           7.1409696232e-03 4.1350462133e-03 -1.4504028118e-22 6.5650661869e-03 4.5689154907e-03 -1.5689052654e-22 5.7590343629e-04 -4.3386927733e-04 1.1850245359e-23
5.263158           7.8050780708e-03 4.3702320936e-03 -1.0279792871e-22 7.2425738489e-03 4.8044869903e-03 -1.5501567122e-22 5.6250422184e-04 -4.3425489665e-04 5.2217742513e-23
5.391528           8.2697364959e-03 4.6617638657e-03 -9.6184469043e-23 7.7209058298e-03 5.0972484628e-03 -1.5926966268e-22 5.4883066609e-04 -4.3548459708e-04 6.3085193638e-23
5.519897           8.3414186796e-03 4.9582137083e-03 -6.0439324190e-23 7.8044235476e-03 5.3969281930e-03 -1.6431724134e-22 5.3699513204e-04 -4.3871448466e-04 1.0387791715e-22
5.648267           8.2189030355e-03 5.2259585061e-03 -7.6132309561e-23 7.6917535102e-03 5.6685895327e-03 -1.6568341349e-22 5.2714952533e-04 -4.4263102657e-04 8.9551103926e-23
5.776637           8.2002568501e-03 5.4801912799e-03 -2.4153047249e-23 7.6823921110e-03 5.9255521119e-03 -1.6349152884e-22 5.1786473913e-04 -4.4536083198e-04 1.3933848160e-22
5.905006           8.4098344394e-03 5.7575123982e-03 5.1711393143e-23 7.9019208100e-03 6.2037464589e-03 -1.6098158303e-22 5.0791362938e-04 -4.4623406076e-04 2.1269297618e-22
6.033376           8.7474392568e-03 6.0769783326e-03 1.1270081413e-22 8.2502478287e-03 6.5231145797e-03 -1.6083042688e-22 4.9719142812e-04 -4.4613624708e-04 2.7353124101e-22
6.161746           9.0383880804e-03 6.4294519082e-03 3.7510439548e-24 8.5518350213e-03 6.8756825623e-03 -1.6300637808e-22 4.8655305913e-04 -4.4623065407e-04 1.6675742204e-22
6.290116           9.2031516217e-03 6.7920381585e-03 5.4428094372e-23 8.7263884204e-03 7.2388953289e-03 -1.6555218952e-22 4.7676320132e-04 -4.4685717037e-04 2.1998028389e-22
6.418485           9.2950025283e-03 7.1530986473e-03 -1.7017219388e-23 8.8271647361e-03 7.6005487045e-03 -1.6682586429e-22 4.6783779213e-04 -4.4745005718e-04 1.4980864490e-22
6.546855           9.4141873451e-03 7.5220481328e-03 1.0666316459e-22 8.9549396830e-03 7.9693398556e-03 -1.6679744274e-22 4.5924766208e-04 -4.4729172283e-04 2.7346060733e-22
6.675225           9.6095980283e-03 7.9154709956e-03 -2.1348338836e-23 9.1590557652e-03 8.3616526789e-03 -1.6665210936e-22 4.5054226310e-04 -4.4618168338e-04 1.4530377053e-22
6.803594           9.8514776573e-03 8.3383708465e-03 1.3391311064e-22 9.4097766495e-03 8.7828759942e-03 -1.6735606779e-22 4.4170100784e-04 -4.4450514770e-04 3.0126917843e-22
6.931964           1.0085008093e-02 8.7839894592e-03 9.2332043813e-23 9.6519373882e-03 9.2266683248e-03 -1.6896573675e-22 4.3307070467e-04 -4.4267886558e-04 2.6129778056e-22
7.060334           1.0280843231e-02 9.2425217131e-03 -1.9377595725e-23 9.8559165180e-03 9.6833268432e-03 -1.7080830803e-22 4.2492671306e-04 -4.4080513014e-04 1.5143071230e-22
7.188703           1.0453066554e-02 9.7118414568e-03 1.5532877740e-22 1.0035809705e-02 1.0150494994e-02 -1.7229362088e-22 4.1725684910e-04 -4.3865353710e-04 3.2762239829e-22
7.317073           1.0634603616e-02 1.0199668342e-02 8.6209058168e-23 1.0224743053e-02 1.0635620446e-02 -1.7336670752e-22 4.0986056267e-04 -4.3595210450e-04 2.5957576569e-22
7.445443           1.0843849417e-02 1.0712400302e-02 -1.8469650608e-23 1.0441272543e-02 1.1145040040e-02 -1.7441009072e-22 4.0257687427e-04 -4.3263973826e-04 1.5594044011e-22
7.573813           1.1072956573e-02 1.1249863630e-02 2.1324133934e-22 1.0677544336e-02 1.1678731136e-02 -1.7580053895e-22 3.9541223705e-04 -4.2886750542e-04 3.8904187829e-22
7.702182           1.1301711747e-02 1.1808052489e-02 -3.5973861901e-23 1.0913220059e-02 1.2232857942e-02 -1.7759119829e-22 3.8849168827e-04 -4.2480545301e-04 1.4161733639e-22
7.830552           1.1517404922e-02 1.2382732011e-02 -1.2051021210e-22 1.1135487329e-02 1.2803219328e-02 -1.7959328333e-22 3.8191759297e-04 -4.2048731628e-04 5.9083071221e-23
7.958922           1.1724400390e-02 1.2972526649e-02 7.6193036662e-23 1.1348710027e-02 1.3388344904e-02 -1.8157646318e-22 3.7569036254e-04 -4.1581825540e-04 2.5776949985e-22
8.087291           1.1929666400e-02 1.3580475430e-02 5.7859528182e-23 1.1559930114e-02 1.3991170722e-02 -1.8344884945e-22 3.6973628660e-04 -4.1069529159e-04 2.4130837763e-22
8.215661           1.2129464752e-02 1.4176000372e-02 1.4789446983e-22 1.1765484127e-02 1.4581128583e-02 -1.8519098117e-22 3.6398062428e-04 -4.0512821109e-04 3.3308545100e-22
8.344031           1.2365517855e-02 1.4856957697e-02 7.9118626782e-23 1.2007007253e-02 1.5256078071e-02 -1.8735830954e-22 3.5851060142e-04 -3.9912037391e-04 2.6647693632e-22
8.472401           1.2583885283e-02 1.5506424627e-02 1.5517649505e-23 1.2230650059e-02 1.5899188254e-02 -1.8951902770e-22 3.5323522359e-04 -3.9276362725e-04 2.0503667720e-22
8.600770           1.2801966052e-02 1.6178069915e-02 3.5371023350e-23 1.2453684950e-02 1.6564194533e-02 -1.9182799978e-22 3.4828110154e-04 -3.8612461728e-04 2.2719902313e-22
8.729140           1.3017076276e-02 1.6870160036e-02 -1.1479101156e-22 1.2673448068e-02 1.7249311018e-02 -1.9421166436e-22 3.4362820876e-04 -3.7915098270e-04 7.9420652803e-23
8.857510           1.3221114993e-02 1.7576075513e-02 -1.7281725324e-23 1.2881866046e-02 1.7947866557e-02 -1.9655012307e-22 3.3924894791e-04 -3.7179104348e-04 1.7926839775e-22
8.985879           1.3416096929e-02 1.8284891978e-02 1.5966556852e-22 1.3080994722e-02 1.8648936040e-02 -1.9881470331e-22 3.3510220709e-04 -3.6404406210e-04 3.5848027183e-22
9.114249           1.3613085121e-02 1.8994462666e-02 1.2038971624e-22 1.3281913473e-02 1.9350420939e-02 -2.0109507456e-22 3.3117164760e-04 -3.5595827314e-04 3.2148479080e-22
9.242619           1.3811549713e-02 1.9709029644e-02 4.2994695482e-23 1.3484078461e-02 2.0056616904e-02 -2.0343275721e-22 3.2747125191e-04 -3.4758725959e-04 2.4642745269e-22
9.370988           1.4004518314e-02 2.0430159158e-02 -8.1905253358e-23 1.3680496382e-02 2.0769114987e-02 -2.0583451484e-22 3.2402193164e-04 -3.3895582904e-04 1.2392926148e-22
9.499358           1.4181935146e-02 2.1153289580e-02 -9.6762333147e-23 1.3861106324e-02 2.1483352116e-02 -2.0823748424e-22 3.2082882223e-04 -3.3006253548e-04 1.1147515109e-22
9.627728           1.4341494706e-02 2.1872861546e-02 -7.9655147277e-23 1.4023618277e-02 2.2193762237e-02 -2.1059347740e-22 3.1787642820e-04 -3.2090069051e-04 1.3093833012e-22
9.756098           1.4490157333e-02 2.2586817271e-02 -7.4298865473e-23 1.4175011723e-02 2.2898297908e-02 -2.1290995304e-22 3.1514561052e-04 -3.1148063726e-04 1.3861108757e-22
9.884467           1.4632581530e-02 2.3294489607e-02 1.4327480421e-22 1.4319956003e-02 2.3596316370e-02 -2.1523375877e-22 3.1262552759e-04 -3.0182676298e-04 3.5850856299e-22
10.012837          1.4763556902e-02 2.3993736436e-02 5.4470962446e-23 1.4453245042e-02 2.4285707700e-02 -2.1756672080e-22 3.1031185964e-04 -2.9197126406e-04 2.7203768324e-22
10.141207          1.4873638638e-02 2.4682498854e-02 2.4398591809e-22 1.4565441492e-02 2.4964442418e-02 -2.1988903085e-22 3.0819714535e-04 -2.8194356350e-04 4.6387494894e-22
10.269576          1.4963634521e-02 2.5359266096e-02 2.5035689065e-22 1.4657362516e-02 2.5631029167e-02 -2.2221261733e-22 3.0627200477e-04 -2.7176307028e-04 4.7256950797e-22
10.397946          1.5035834460e-02 2.6025328751e-02 1.1739579720e-22 1.4731307078e-02 2.6286768958e-02 -2.2451913172e-22 3.0452738163e-04 -2.6144020735e-04 3.4191492892e-22
10.526316          1.5088316805e-02 2.6679936723e-02 1.9669262838e-22 1.4785366843e-02 2.6930918607e-02 -2.2677917682e-22 3.0294996191e-04 -2.5098188463e-04 4.2347180520e-22
10.654685          1.5123363529e-02 2.7321170672e-02 2.0117713948e-22 1.4821838734e-02 2.7561577686e-02 -2.2902605940e-22 3.0152479485e-04 -2.4040701339e-04 4.3020319888e-22
10.783055          1.5141020885e-02 2.7947982018e-02 1.9964992735e-22 1.4840779467e-02 2.8177718962e-02 -2.3124493262e-22 3.0024141782e-04 -2.2973694370e-04 4.3089485997e-22
10.911425          1.5138499228e-02 2.8561460669e-02 3.2338993483e-22 1.4839408629e-02 2.8780450527e-02 -2.3340874461e-22 2.9909059857e-04 -2.1898985819e-04 5.5679867944e-22
11.039795          1.5117785100e-02 2.9162130631e-02 1.0235434719e-22 1.4819720487e-02 2.9370313187e-02 -2.3551926408e-22 2.9806461297e-04 -2.0818255591e-04 3.3787361126e-22
11.168164          1.5079687975e-02 2.9750628820e-02 1.1265245197e-22 1.4782530350e-02 2.9947952469e-02 -2.3756953997e-22 2.9715762508e-04 -1.9732364949e-04 3.5022199194e-22
11.296534          1.5033317758e-02 3.0261893401e-02 1.6639482890e-23 1.4736948518e-02 3.0448364032e-02 -2.3931984429e-22 2.9636924058e-04 -1.8647063092e-04 2.5595932718e-22
11.424904          1.4966456942e-02 3.0896400216e-02 6.0804489032e-23 1.4670830301e-02 3.1072187631e-02 -2.4158307711e-22 2.9562664046e-04 -1.7578741547e-04 3.0238756614e-22
11.553273          1.4897900807e-02 3.1418422244e-02 -5.8985746888e-23 1.4602862192e-02 3.1583296310e-02 -2.4345448115e-22 2.9503861472e-04 -1.6487406508e-04 1.8446873427e-22
11.681643          1.4811690503e-02 3.1943812758e-02 -8.1871376319e-23 1.4517185824e-02 3.2097996030e-02 -2.4535794870e-22 2.9450467898e-04 -1.5418327191e-04 1.6348657238e-22
11.810013          1.4709737622e-02 3.2474151489e-02 -1.8565489200e-22 1.4415702862e-02 3.2617682592e-02 -2.4732188495e-22 2.9403475926e-04 -1.4353110308e-04 6.1666992951e-23
11.938383          1.4596642535e-02 3.2995468912e-02 5.3713945177e-24 1.4303000819e-02 3.3128343552e-02 -2.4931689722e-22 2.9364171570e-04 -1.3287464024e-04 2.5468829174e-22
12.066752          1.4475474290e-02 3.3494276397e-02 5.1698869605e-23 1.4182135671e-02 3.3616481238e-02 -2.5128360541e-22 2.9333861968e-04 -1.2220484058e-04 3.0298247501e-22
12.195122          1.4349051006e-02 3.3967241221e-02 -1.4461875951e-23 1.4055918415e-02 3.4078764552e-02 -2.5321953101e-22 2.9313259142e-04 -1.1152333041e-04 2.3875765506e-22
12.323492          1.4217429143e-02 3.4422297616e-02 -5.4956612596e-23 1.3924405171e-02 3.4523140940e-02 -2.5514207105e-22 2.9302397217e-04 -1.0084332375e-04 2.0018545846e-22
12.451861          1.4079974099e-02 3.4869591620e-02 -4.3450076800e-23 1.3786965692e-02 3.4959774019e-02 -2.5708748726e-22 2.9300840688e-04 -9.0182398744e-05 2.1363741046e-22
12.580231          1.3936302551e-02 3.5313156053e-02 -1.5390047182e-22 1.3643220555e-02 3.5392716750e-02 -2.5907962408e-22 2.9308199554e-04 -7.9560697582e-05 1.0517915226e-22
12.708601          1.3786889141e-02 3.5748760653e-02 5.4276422095e-24 1.3493645035e-02 3.5817757025e-02 -2.6112409685e-22 2.9324410622e-04 -6.8996372120e-05 2.6655173906e-22
12.836970          1.3631729022e-02 3.6170997299e-02 1.0934429726e-22 1.3338232566e-02 3.6229498579e-02 -2.6318795626e-22 2.9349645560e-04 -5.8501279970e-05 3.7253225352e-22
12.965340          1.3471819439e-02 3.6577892630e-02 -7.2408674777e-23 1.3177978500e-02 3.6625970653e-02 -2.6524757172e-22 2.9384093842e-04 -4.8078022756e-05 1.9283889694e-22
13.093710          1.3308458008e-02 3.6970442537e-02 -1.1936353811e-22 1.3014179621e-02 3.7008171022e-02 -2.6729250626e-22 2.9427838731e-04 -3.7728485548e-05 1.4792896815e-22
13.222080          1.3143227403e-02 3.7351391727e-02 -1.2529881823e-24 1.2848419864e-02 3.7378849389e-02 -2.6933328409e-22 2.9480753886e-04 -2.7457661945e-05 2.6808029590e-22
13.350449          1.2976830683e-02 3.7723324347e-02 9.8720871271e-23 1.2681405621e-02 3.7740601487e-02 -2.7138443079e-22 2.9542506217e-04 -1.7277140212e-05 3.7010530206e-22
13.478819          1.2809091230e-02 3.8087717848e-02 -8.7082942498e-24 1.2512964034e-02 3.8094917614e-02 -2.7345065108e-22 2.9612719619e-04 -7.1997653832e-06 2.6474235683e-22
13.607189          1.2639258889e-02 3.8444109276e-02 1.9250346926e-23 1.2342347994e-02 3.8441343535e-02 -2.7551446205e-22 2.9691089513e-04 2.7657411807e-06 2.9476480898e-22
13.735558          1.2467109975e-02 3.8790833696e-02 1.0308257764e-22 1.2169334316e-02 3.8778217077e-02 -2.7754097089e-22 2.9777565962e-04 1.2616618974e-05 3.8062354853e-22
13.863928          1.2293422031e-02 3.9126416571e-02 -2.9287461067e-23 1.1994699221e-02 3.9104063880e-02 -2.7950643626e-22 2.9872281072e-04 2.2352691717e-05 2.5021897519e-22
13.992298          1.2119496221e-02 3.9450905399e-02 1.9868166138e-22 1.1819742558e-02 3.9418933260e-02 -2.8141358946e-22 2.9975366297e-04 3.1972139000e-05 4.8009525084e-22
14.120668          1.1946556586e-02 3.9765510478e-02 1.5748371398e-22 1.1645688653e-02 3.9724040909e-02 -2.8327238169e-22 3.0086793283e-04 4.1469568357e-05 4.4075609567e-22
14.249037          1.1773641576e-02 4.0084638922e-02 2.9632839326e-22 1.1471598551e-02 4.0033788816e-02 -2.8505948499e-22 3.0204302496e-04 5.0850106055e-05 5.8138787825e-22
14.377407          1.1602516959e-02 4.0395594945e-02 1.2330683795e-22 1.1299311174e-02 4.0335510741e-02 -2.8678735505e-22 3.0320578509e-04 6.0084204795e-05 4.1009419300e-22
14.505777          1.1433750132e-02 4.0688762855e-02 -4.2134630615e-23 1.1129327010e-02 4.0619603671e-02 -2.8846727568e-22 3.0442312212e-04 6.9159184554e-05 2.4633264507e-22
14.634146          1.1266966792e-02 4.0963015566e-02 2.7159527461e-22 1.0961194114e-02 4.0884942479e-02 -2.9010231000e-22 3.0577267797e-04 7.8073087007e-05 5.6169758462e-22
14.762516          1.1102096656e-02 4.1224203464e-02 1.9753680495e-22 1.0794819514e-02 4.1137373372e-02 -2.9167938649e-22 3.0727714240e-04 8.6830092282e-05 4.8921619144e-22
14.890886          1.0939291957e-02 4.1480034979e-02 3.9296735891e-22 1.0630393208e-02 4.1384599986e-02 -2.9318577462e-22 3.0889874939e-04 9.5434993573e-05 6.8615313354e-22
15.019255          1.0779575743e-02 4.1734555944e-02 4.0135839689e-22 1.0468996274e-02 4.1630663879e-02 -2.9461675295e-22 3.1057946950e-04 1.0389206498e-04 6.9597514984e-22
15.147625          1.0623703068e-02 4.1986496566e-02 3.6174095328e-22 1.0311417281e-02 4.1874295417e-02 -2.9597425605e-22 3.1228578718e-04 1.1220114922e-04 6.5771520932e-22
15.275995          1.0449485224e-02 4.2265625713e-02 3.7441683714e-22 1.0135477970e-02 4.2145241529e-02 -2.9748218819e-22 3.1400725458e-04 1.2038418489e-04 6.7189902533e-22
15.404365          1.0320291922e-02 4.2464409857e-02 1.6085027798e-22 1.0004291031e-02 4.2335716510e-02 -2.9850217502e-22 3.1600089075e-04 1.2869334689e-04 4.5935245301e-22
15.532734          1.0190844143e-02 4.2659726642e-02 2.3304405129e-22 9.8728316103e-03 4.2523115068e-02 -2.9950582670e-22 3.1801253281e-04 1.3661157423e-04 5.3254987799e-22
15.661104          1.0033794734e-02 4.2903103243e-02 3.3148119827e-22 9.7137374980e-03 4.2758814769e-02 -3.0078842097e-22 3.2005723590e-04 1.4428847475e-04 6.3226961924e-22
15.789474          9.8905161624e-03 4.3129308115e-02 4.7447223879e-22 9.5682063198e-03 4.2977302988e-02 -3.0193399038e-22 3.2230984259e-04 1.5200512740e-04 7.7640622918e-22
15.917843          9.7635056113e-03 4.3327340419e-02 3.2490399987e-22 9.4388224091e-03 4.3167783905e-02 -3.0287708768e-22 3.2468320220e-04 1.5955651369e-04 6.2778108754e-22
16.046213          9.6461255439e-03 4.3508909210e-02 3.9837971923e-22 9.3189885239e-03 4.3342007548e-02 -3.0369421099e-22 3.2713702000e-04 1.6690166279e-04 7.0207393022e-22
16.174583          9.5313528559e-03 4.3691617055e-02 3.5889972060e-22 9.2017078821e-03 4.3517594128e-02 -3.0449825708e-22 3.2964497373e-04 1.7402292694e-04 6.6339797769e-22
16.302953          9.4168030077e-03 4.3881976587e-02 4.1488949780e-22 9.0846057760e-03 4.3701076068e-02 -3.0533620319e-22 3.3219723165e-04 1.8090051916e-04 7.2022570098e-22
16.431322          9.3040256722e-03 4.4073096510e-02 3.7178977428e-22 8.9692282991e-03 4.3885573825e-02 -3.0616985012e-22 3.3479737308e-04 1.8752268530e-04 6.7795962439e-22
16.559692          9.1961099941e-03 4.4254781748e-02 3.3478156476e-22 8.8586585889e-03 4.4060884225e-02 -3.0693691966e-22 3.3745140527e-04 1.9389752266e-04 6.4171848442e-22
16.688062          9.0954566013e-03 4.4423482875e-02 5.2693248272e-22 8.7552969041e-03 4.4223435044e-02 -3.0761629226e-22 3.4015969717e-04 2.0004783047e-04 8.3454877498e-22
16.816431          9.0027628125e-03 4.4583375863e-02 5.1756852879e-22 8.6598463524e-03 4.4377382984e-02 -3.0824337853e-22 3.4291646014e-04 2.0599287971e-04 8.2581190732e-22
16.944801          8.9170825601e-03 4.4741141114e-02 6.9256602730e-22 8.5713673798e-03 4.4529403587e-02 -3.0886752958e-22 3.4571518036e-04 2.1173752703e-04 1.0014335569e-21
17.073171          8.8365795931e-03 4.4899839165e-02 7.7787150255e-22 8.4880269884e-03 4.4682564858e-02 -3.0951008941e-22 3.4855260475e-04 2.1727430630e-04 1.0873815920e-21
17.201540          8.7598284293e-03 4.5057865916e-02 6.8426414436e-22 8.4083998620e-03 4.4835270431e-02 -3.1015654705e-22 3.5142856729e-04 2.2259548529e-04 9.9442069140e-22
17.329910          8.6868561458e-03 4.5211741692e-02 6.8599215522e-22 8.3325123450e-03 4.4984038780e-02 -3.1078171424e-22 3.5434380087e-04 2.2770291190e-04 9.9677386946e-22
17.458280          8.6188434474e-03 4.5359622815e-02 5.7748146317e-22 8.2615463699e-03 4.5127015996e-02 -3.1137818199e-22 3.5729707751e-04 2.3260681906e-04 8.8885964516e-22
17.586650          8.5570976510e-03 4.5502673906e-02 5.6481595415e-22 8.1968126366e-03 4.5265355571e-02 -3.1196151329e-22 3.6028501443e-04 2.3731833479e-04 8.7677746743e-22
17.715019          8.5018770739e-03 4.5643533668e-02 6.5831166359e-22 8.1385735355e-03 4.5401690067e-02 -3.1255316091e-22 3.6330353843e-04 2.4184360192e-04 9.7086482450e-22
17.843389          8.4523330283e-03 4.5784009256e-02 7.5954878979e-22 8.0859842770e-03 4.5537826364e-02 -3.1316268116e-22 3.6634875128e-04 2.4618289185e-04 1.0727114709e-21
17.971759          8.4073449069e-03 4.5924050631e-02 7.6240329163e-22 8.0379270770e-03 4.5673715350e-02 -3.1378372406e-22 3.6941782987e-04 2.5033528077e-04 1.0761870157e-21
18.100128          8.3665411120e-03 4.6062463751e-02 7.8454587090e-22 7.9940320467e-03 4.5808160821e-02 -3.1440464619e-22 3.7250906528e-04 2.5430293007e-04 1.0989505171e-21
18.228498          8.3300629909e-03 4.6198418244e-02 8.7686899350e-22 7.9544421725e-03 4.5940326536e-02 -3.1501883945e-22 3.7562081845e-04 2.5809170710e-04 1.1918878329e-21
18.356868          8.2984778970e-03 4.6332252766e-02 9.2723948388e-22 7.9197270785e-03 4.6070543835e-02 -3.1562986307e-22 3.7875081841e-04 2.6170893176e-04 1.2428693470e-21
18.485237          8.2721167500e-03 4.6465052387e-02 8.9170802280e-22 7.8902210047e-03 4.6199892063e-02 -3.1624636751e-22 3.8189574531e-04 2.6516032406e-04 1.2079543903e-21
18.613607          8.2506804182e-03 4.6597738664e-02 9.5796566543e-22 7.8656283823e-03 4.6329289244e-02 -3.1687420182e-22 3.8505203591e-04 2.6844941962e-04 1.2748398673e-21
18.741977          8.2336026345e-03 4.6730585452e-02 1.1633849300e-21 7.8453858828e-03 4.6459006407e-02 -3.1751164425e-22 3.8821675166e-04 2.7157904469e-04 1.4808965742e-21
18.870347          8.2204545691e-03 4.6863324216e-02 9.7165899232e-22 7.8290666899e-03 4.6588771138e-02 -3.1815268883e-22 3.9138787917e-04 2.7455307812e-04 1.2898116811e-21
18.998716          8.2111469496e-03 4.6995647612e-02 5.9564410049e-22 7.8165832420e-03 4.6718270832e-02 -3.1879286199e-22 3.9456370763e-04 2.7737677937e-04 9.1443696249e-22
19.127086          8.2058252552e-03 4.7127621339e-02 7.5800757039e-22 7.8080828822e-03 4.6847565244e-02 -3.1943282361e-22 3.9774237303e-04 2.8005609463e-04 1.0774403940e-21
19.255456          8.2046137816e-03 4.7259648360e-02 6.9272407799e-22 7.8036921492e-03 4.6977051810e-02 -3.2007693548e-22 4.0092163239e-04 2.8259655006e-04 1.0128010135e-21
19.383825          8.2074243045e-03 4.7392178346e-02 6.9546627816e-22 7.8033252116e-03 4.7107175567e-02 -3.2072929957e-22 4.0409909293e-04 2.8500277865e-04 1.0161955777e-21
19.512195          8.2139760296e-03 4.7525452687e-02 8.5909246499e-22 7.8067034295e-03 4.7238173733e-02 -3.2139108800e-22 4.0727260009e-04 2.8727895365e-04 1.1804835530e-21
19.640565          8.2239564912e-03 4.7659482670e-02 9.3068777775e-22 7.8135161233e-03 4.7370053253e-02 -3.2206081222e-22 4.1044036793e-04 2.8942941693e-04 1.2527485900e-21
19.768935          8.2378523964e-03 4.7803078609e-02 8.5225800554e-22 7.8242509960e-03 4.7511612524e-02 -3.2278751013e-22 4.1360140044e-04 2.9146608521e-04 1.1750455157e-21
19.897304          8.2536838786e-03 4.7937086795e-02 6.4147663582e-22 7.8368287649e-03 4.7643672429e-02 -3.2345980626e-22 4.1685511367e-04 2.9341436583e-04 9.6493644207e-22
20.025674          8.2719493387e-03 4.8066142761e-02 7.4371608857e-22 7.8518268790e-03 4.7770896791e-02 -3.2410688961e-22 4.2012245970e-04 2.9524597026e-04 1.0678229782e-21
20.154044          8.2943259845e-03 4.8198676181e-02 7.2059207903e-22 7.8709524330e-03 4.7901715241e-02 -3.2478198916e-22 4.2337355149e-04 2.9696093999e-04 1.0453740682e-21
20.282413          8.3213081996e-03 4.8338278620e-02 8.8468301791e-22 7.8947132703e-03 4.8039716195e-02 -3.2550712079e-22 4.2659492930e-04 2.9856242496e-04 1.2101901387e-21
20.410783          8.3514039823e-03 4.8482149226e-02 9.8298632641e-22 7.9216214539e-03 4.8182096468e-02 -3.2626240532e-22 4.2978252843e-04 3.0005275752e-04 1.3092487317e-21
20.539153          8.3828535413e-03 4.8625659549e-02 7.7949712371e-22 7.9499149976e-03 4.8324222590e-02 -3.2701665537e-22 4.3293854371e-04 3.0143695942e-04 1.1065137791e-21
20.667522          8.4153411415e-03 4.8767012379e-02 8.8701616960e-22 7.9792742596e-03 4.8464288239e-02 -3.2776102451e-22 4.3606688186e-04 3.0272414038e-04 1.2147771941e-21
20.795892          8.4500555539e-03 4.8907911110e-02 8.8409607192e-22 8.0108861864e-03 4.8603986863e-02 -3.2851169699e-22 4.3916936741e-04 3.0392424725e-04 1.2126077689e-21
20.924262          8.4881323208e-03 4.9050988416e-02 8.2558208405e-22 8.0458874044e-03 4.8745944311e-02 -3.2928873718e-22 4.4224491641e-04 3.0504410450e-04 1.1548708212e-21
21.052632          8.5294465098e-03 4.9197281374e-02 7.5780821425e-22 8.0841551726e-03 4.8891194769e-02 -3.3009636029e-22 4.4529133717e-04 3.0608660501e-04 1.0879045745e-21
21.181001          8.5727922006e-03 4.9345894740e-02 7.4569508630e-22 8.1244847834e-03 4.9038841382e-02 -3.3092346562e-22 4.4830741723e-04 3.0705335847e-04 1.0766185519e-21
21.309371          8.6171553988e-03 4.9495394835e-02 8.6547630439e-22 8.1658617776e-03 4.9187447282e-02 -3.3175759444e-22 4.5129362119e-04 3.0794755354e-04 1.1972338988e-21
21.437741          8.6624751773e-03 4.9645187937e-02 8.6099489510e-22 8.2082240513e-03 4.9336413462e-02 -3.3259664870e-22 4.5425112605e-04 3.0877447454e-04 1.1935915438e-21
21.566110          8.7094340625e-03 4.9795712832e-02 8.4966172518e-22 8.2522535531e-03 4.9486172989e-02 -3.3344822278e-22 4.5718050947e-04 3.0953984313e-04 1.1831099480e-21
21.694480          8.7585405974e-03 4.9947725033e-02 9.1395275977e-22 8.2984592418e-03 4.9637477013e-02 -3.3431987083e-22 4.6008135560e-04 3.1024801935e-04 1.2482726306e-21
21.822850          8.8095882966e-03 5.0101569934e-02 8.9266574975e-22 8.3466357231e-03 4.9790668137e-02 -3.3521131212e-22 4.6295257354e-04 3.1090179699e-04 1.2278770619e-21
21.951220          8.8619221285e-03 5.0256993537e-02 8.9009318277e-22 8.3961289174e-03 4.9945490167e-02 -3.3611577655e-22 4.6579321104e-04 3.1150337018e-04 1.2262089593e-21