# Force           
# CofR            : (0.0000000000e+00 0.0000000000e+00 0.0000000000e+00)
#
# Time            	total_x total_y total_z	pressure_x pressure_y pressure_z	viscous_x viscous_y viscous_z
0.128370           9.8087227814e-01 7.4080292139e-03 -1.6877118390e-22 9.5881911987e-01 1.0474073425e-03 6.7636961403e-23 2.2053158266e-02 6.3606218714e-03 -2.3640814530e-22
0.256739           3.3084101713e-01 2.3595424820e-03 -5.4361217549e-22 3.3060457760e-01 8.0028322389e-04 -3.6602585902e-22 2.3643953042e-04 1.5592592581e-03 -1.7758631646e-22
0.385109           -3.7467850222e-01 6.5018029165e-04 -9.0698786648e-22 -3.7102416583e-01 4.8542395200e-04 -7.2298990890e-22 -3.6543363883e-03 1.6475633965e-04 -1.8399795758e-22
0.513479           -4.9855790757e-01 1.6488714485e-04 -2.9283235518e-22 -4.9831578728e-01 6.4003995405e-04 -4.9554475860e-22 -2.4212028754e-04 -4.7515280920e-04 2.0271240342e-22
0.641849           -1.1094879379e-01 -8.4996596957e-06 -8.0991273037e-22 -1.1446531493e-01 6.6143414691e-04 1.2758671886e-22 3.5165211341e-03 -6.6993380660e-04 -9.3749944923e-22
0.770218           2.8313029649e-01 2.1143387680e-04 -2.4504221327e-22 2.7901598091e-01 6.9378668938e-04 4.4145750980e-22 4.1143155818e-03 -4.8235281258e-04 -6.8649972308e-22
0.898588           2.9249076053e-01 1.0485240384e-03 -5.4560804139e-22 2.9018397466e-01 1.2712150932e-03 6.0698494262e-23 2.3067858687e-03 -2.2269105476e-04 -6.0630653565e-22
1.026958           3.3737089564e-02 2.1159296116e-03 -9.6639906474e-22 3.3127041977e-02 2.3169787437e-03 -5.3791742480e-22 6.1004758651e-04 -2.0104913214e-04 -4.2848163994e-22
1.155327           -1.6678333410e-01 2.1500085003e-03 -5.3461605091e-22 -1.6723496593e-01 2.5450800760e-03 -6.8383848535e-22 4.5163183144e-04 -3.9507157566e-04 1.4922243444e-22
1.283697           -1.4534871738e-01 1.1542064155e-03 -4.1118263787e-22 -1.4663619984e-01 1.7369368578e-03 -3.0961071421e-22 1.2874824571e-03 -5.8273044232e-04 -1.0157192366e-22
1.412067           1.1049966754e-02 1.2298838122e-04 -3.5660673293e-23 9.1675735905e-03 6.7854328710e-04 1.4296492906e-22 1.8823931635e-03 -5.5555490587e-04 -1.7862560235e-22
1.540436           1.1410704205e-01 3.7247687985e-04 -1.2952714665e-22 1.1241802470e-01 7.7305629472e-04 1.8109378046e-22 1.6890173501e-03 -4.0057941486e-04 -3.1062092711e-22
1.668806           8.5191056298e-02 1.7199708973e-03 -4.1758958132e-22 8.4077734610e-02 2.0060498807e-03 -1.5560064122e-22 1.1133216885e-03 -2.8607898341e-04 -2.6198894010e-22
1.797176           -6.2067715077e-03 2.7905092890e-03 -4.8546038666e-22 -6.9851959509e-03 3.1318559162e-03 -4.6136562818e-22 7.7842444324e-04 -3.4134662724e-04 -2.4094758478e-23
1.925546           -5.6184811507e-02 2.6088271362e-03 -9.9267969720e-23 -5.7057625333e-02 3.0733588789e-03 -4.3982774241e-22 8.7281382600e-04 -4.6453174272e-04 3.4055977269e-22
2.053915           -3.4667789400e-02 1.4850130920e-03 2.1160971148e-22 -3.5774826920e-02 2.0383166896e-03 -1.8484465903e-22 1.1070375203e-03 -5.5330359759e-04 3.9645437051e-22
2.182285           1.6854636919e-02 8.2058746490e-04 3.5658638142e-22 1.5680588950e-02 1.3328423977e-03 8.5143276793e-24 1.1740479684e-03 -5.1225493280e-04 3.4807205374e-22
2.310655           4.2849800183e-02 1.3988947175e-03 4.5710314164e-23 4.1819263168e-02 1.8165791694e-03 -3.7046076897e-23 1.0305370150e-03 -4.1768445192e-04 8.2756391061e-23
2.439024           2.8014290322e-02 2.5612783988e-03 -9.1956642546e-23 2.7165048562e-02 2.9413479511e-03 -2.2370219385e-22 8.4924176017e-04 -3.8006955229e-04 1.3174555130e-22
2.567394           -1.0249970085e-03 3.1195992032e-03 -7.4561644959e-23 -1.8086834384e-03 3.5516816229e-03 -3.3866354371e-22 7.8368642996e-04 -4.3208241967e-04 2.6410189876e-22
2.695764           -1.3904008294e-02 2.7289146702e-03 1.7228213830e-22 -1.4732957915e-02 3.2379233002e-03 -2.9281802665e-22 8.2894962123e-04 -5.0900862993e-04 4.6510016496e-22
2.824134           -5.0724617638e-03 1.9928749013e-03 1.7334767202e-22 -5.9521031551e-03 2.5379509903e-03 -1.6775628429e-22 8.7964139134e-04 -5.4507608898e-04 3.4110395631e-22
2.952503           1.1240274736e-02 1.8339459725e-03 1.7670800040e-22 1.0381006631e-02 2.3563967635e-03 -1.0370497293e-22 8.5926810526e-04 -5.2245079095e-04 2.8041297334e-22
3.080873           1.8181452762e-02 2.4048588438e-03 2.0199046058e-22 1.7395714785e-02 2.8941756871e-03 -1.4691483506e-22 7.8573797723e-04 -4.8931684333e-04 3.4890529564e-22
3.209243           1.3092322167e-02 3.1526563446e-03 -1.5216106205e-23 1.2372482342e-02 3.6400157628e-03 -2.3210852046e-22 7.1983982554e-04 -4.8735941819e-04 2.1689241426e-22
3.337612           4.2288595586e-03 3.4027640032e-03 1.7211382363e-22 3.5286340669e-03 3.9218151903e-03 -2.6798704217e-22 7.0022549166e-04 -5.1905118704e-04 4.4010086579e-22
3.465982           6.6977239538e-04 3.1465983945e-03 7.4268549598e-23 -3.8404708477e-05 3.6989565565e-03 -2.3498014031e-22 7.0817710385e-04 -5.5235816207e-04 3.0924868990e-22
3.594352           3.7590957036e-03 2.8451208381e-03 1.6490877902e-22 3.0497357508e-03 3.4066617951e-03 -1.8060831401e-22 7.0935995289e-04 -5.6154095701e-04 3.4551709304e-22
3.722721           8.6759236171e-03 2.9530043210e-03 2.0532422540e-22 7.9924374659e-03 3.5055044158e-03 -1.6298944702e-22 6.8348615122e-04 -5.5250009484e-04 3.6831367242e-22
3.851091           1.0963558649e-02 3.4265553662e-03 2.5472667766e-22 1.0316763098e-02 3.9676807397e-03 -1.8753065862e-22 6.4679555159e-04 -5.4112537349e-04 4.4225733627e-22
3.979461           9.5336229932e-03 3.9116338556e-03 1.4927008215e-22 8.9169035373e-03 4.4607528587e-03 -2.2260089505e-22 6.1671945595e-04 -5.4911900305e-04 3.7187097721e-22
4.107831           6.9871773247e-03 4.0845068143e-03 5.2763923904e-23 6.3836757651e-03 4.6524518184e-03 -2.3249216903e-22 6.0350155958e-04 -5.6794500410e-04 2.8525609293e-22
4.236200           5.8671133602e-03 4.0450746352e-03 1.3167380207e-22 5.2709491405e-03 4.6305491772e-03 -2.1609116791e-22 5.9616421973e-04 -5.8547454197e-04 3.4776496998e-22
4.364570           6.8312354047e-03 4.0532685733e-03 1.5631109423e-22 6.2463707152e-03 4.6430796912e-03 -1.9517142864e-22 5.8486468951e-04 -5.8981111786e-04 3.5148252286e-22
4.492940           8.5802912014e-03 4.2845564451e-03 2.0152263930e-22 8.0147836282e-03 4.8703114751e-03 -1.8998504278e-22 5.6550757329e-04 -5.8575503002e-04 3.9150768207e-22
4.621309           9.5487905560e-03 4.6779085522e-03 2.0522773120e-22 9.0058037882e-03 5.2623527543e-03 -2.0131783603e-22 5.4298676780e-04 -5.8444420210e-04 4.0654556723e-22
4.749679           9.3168435039e-03 5.0481825816e-03 1.2033640336e-22 8.7929851193e-03 5.6394308480e-03 -2.1513318652e-22 5.2385838459e-04 -5.9124826638e-04 3.3546958988e-22
4.878049           8.6176986436e-03 5.2757357370e-03 1.4302312322e-22 8.1073805449e-03 5.8779306813e-03 -2.1903759694e-22 5.1031809873e-04 -6.0219494428e-04 3.6206072015e-22
5.006418           8.3413624985e-03 5.4157288158e-03 1.8356539916e-22 7.8424111117e-03 6.0259911127e-03 -2.1293984220e-22 4.9895138679e-04 -6.1026229694e-04 3.9650524136e-22
5.134788           8.7634098468e-03 5.6000673721e-03 3.8195577635e-22 8.2772779905e-03 6.2124464302e-03 -2.0562398146e-22 4.8613185631e-04 -6.1237905813e-04 5.8757975780e-22
5.263158           9.4924445346e-03 5.9031278744e-03 2.6906141386e-22 9.0217733406e-03 6.5145017737e-03 -2.0473046200e-22 4.7067119401e-04 -6.1137389933e-04 4.7379187586e-22
5.391528           9.9996642168e-03 6.2871680664e-03 2.1628771646e-22 9.5451424837e-03 6.8987716555e-03 -2.1033710418e-22 4.5452173314e-04 -6.1160358915e-04 4.2662482065e-22
5.519897           1.0105743787e-02 6.6628182415e-03 2.0484693830e-22 9.6657430266e-03 7.2775422836e-03 -2.1695675915e-22 4.4000076069e-04 -6.1472404211e-04 4.2180369745e-22
5.648267           1.0028904986e-02 6.9824672677e-03 1.2571440869e-22 9.6012321326e-03 7.6013432572e-03 -2.1978689829e-22 4.2767285324e-04 -6.1887598945e-04 3.4550130698e-22
5.776637           1.0072995030e-02 7.2777593239e-03 1.1891749273e-22 9.6566846033e-03 7.8991483612e-03 -2.1879454048e-22 4.1631042657e-04 -6.2138903734e-04 3.3771203322e-22
5.905006           1.0352181109e-02 7.6107088783e-03 2.7393902800e-22 9.9475947076e-03 8.2319999310e-03 -2.1731499427e-22 4.0458640123e-04 -6.2129105270e-04 4.9125402226e-22
6.033376           1.0752231458e-02 8.0090584348e-03 2.6895989382e-23 1.0360155991e-02 8.6289070761e-03 -2.1827236865e-22 3.9207546682e-04 -6.1984864127e-04 2.4516835803e-22
6.161746           1.1093614007e-02 8.4491828464e-03 2.6175956173e-22 1.0714096350e-02 9.0679303476e-03 -2.2176720884e-22 3.7951765683e-04 -6.1874750127e-04 4.8352677056e-22
6.290116           1.1302491860e-02 8.8920942229e-03 2.5399623671e-22 1.0934682637e-02 9.5105672306e-03 -2.2576323066e-22 3.6780922244e-04 -6.1847300772e-04 4.7975946737e-22
6.418485           1.1442654899e-02 9.3220553606e-03 4.1007682374e-22 1.1085501207e-02 9.9402844705e-03 -2.2840303251e-22 3.5715369194e-04 -6.1822910997e-04 6.3847985624e-22
6.546855           1.1618361352e-02 9.7581607572e-03 9.1899466326e-23 1.1271256020e-02 1.0375159307e-02 -2.2959954220e-22 3.4710533192e-04 -6.1699854976e-04 3.2149900852e-22
6.675225           1.1877474630e-02 1.0226240214e-02 -5.1001892691e-23 1.1540335170e-02 1.0840733997e-02 -2.3054472524e-22 3.3713946050e-04 -6.1449378301e-04 1.7954283255e-22
6.803594           1.2184407863e-02 1.0735748119e-02 2.0646723888e-22 1.1857301033e-02 1.1346986182e-02 -2.3232407596e-22 3.2710683007e-04 -6.1123806290e-04 4.3879131483e-22
6.931964           1.2476765972e-02 1.1272949299e-02 1.4377706579e-22 1.2159480706e-02 1.1880820883e-02 -2.3508045377e-22 3.1728526549e-04 -6.0787158416e-04 3.7885751956e-22
7.060334           1.2725839648e-02 1.1820163792e-02 2.0676434215e-22 1.2417820328e-02 1.2424718039e-02 -2.3818602469e-22 3.0801932059e-04 -6.0455424714e-04 4.4495036684e-22
7.188703           1.2949976091e-02 1.2374391660e-02 1.1613234714e-22 1.2650571946e-02 1.2975354930e-02 -2.4096663945e-22 2.9940414505e-04 -6.0096326962e-04 3.5709898659e-22
7.317073           1.3185383639e-02 1.2944472407e-02 2.0596978755e-22 1.2894105615e-02 1.3541187170e-02 -2.4325902979e-22 2.9127802471e-04 -5.9671476347e-04 4.4922881734e-22
7.445443           1.3445402220e-02 1.3539922883e-02 3.0759396350e-22 1.3161975964e-02 1.4131650151e-02 -2.4540610418e-22 2.8342625595e-04 -5.9172726760e-04 5.5300006768e-22
7.573813           1.3718088893e-02 1.4161440169e-02 1.6769775556e-22 1.3442313897e-02 1.4747663536e-02 -2.4780896946e-22 2.7577499564e-04 -5.8622336703e-04 4.1550672502e-22
7.702182           1.3987189681e-02 1.4802255243e-02 1.7617136785e-22 1.3718766425e-02 1.5382711758e-02 -2.5059068871e-22 2.6842325606e-04 -5.8045651529e-04 4.2676205657e-22
7.830552           1.4243529029e-02 1.5456798174e-02 1.8002774337e-22 1.3982017901e-02 1.6031284040e-02 -2.5359456697e-22 2.6151112845e-04 -5.7448586645e-04 4.3362231034e-22
7.958922           1.4490250120e-02 1.6123816102e-02 -1.8851347908e-23 1.4235162897e-02 1.6692000323e-02 -2.5658214587e-22 2.5508722378e-04 -5.6818422087e-04 2.3773079796e-22
8.087291           1.4738465771e-02 1.6802458839e-02 1.9094193453e-22 1.4489374955e-02 1.7363871232e-02 -2.5945677581e-22 2.4909081563e-04 -5.6141239302e-04 4.5039871034e-22
8.215661           1.4974156914e-02 1.7465196051e-02 1.8160571710e-22 1.4730739256e-02 1.8019375056e-02 -2.6207844176e-22 2.4341765765e-04 -5.5417900526e-04 4.4368415886e-22
8.344031           1.5233014880e-02 1.8209540097e-02 4.2137166731e-22 1.4994824071e-02 1.8756089470e-02 -2.6509586569e-22 2.3819080953e-04 -5.4654937334e-04 6.8646753300e-22
8.472401           1.5457376353e-02 1.8906304653e-02 4.2270054474e-22 1.5224230864e-02 1.9444983127e-02 -2.6792965411e-22 2.3314548932e-04 -5.3867847422e-04 6.9063019885e-22
8.600770           1.5679785603e-02 1.9616740587e-02 5.2279994852e-22 1.5451217680e-02 2.0147388827e-02 -2.7092815722e-22 2.2856792306e-04 -5.3064824066e-04 7.9372810574e-22
8.729140           1.5904640724e-02 2.0344967878e-02 2.2354822252e-22 1.5680247567e-02 2.0867322545e-02 -2.7404273772e-22 2.2439315659e-04 -5.2235466691e-04 4.9759096024e-22
8.857510           1.6125505278e-02 2.1081297733e-02 3.8009366326e-22 1.5904942445e-02 2.1595012052e-02 -2.7716535839e-22 2.2056283278e-04 -5.1371431941e-04 6.5725902165e-22
8.985879           1.6328385596e-02 2.1812884407e-02 3.0960182176e-22 1.6111377711e-02 2.2317611460e-02 -2.8021004692e-22 2.1700788471e-04 -5.0472705331e-04 5.8981186869e-22
9.114249           1.6510196093e-02 2.2534599423e-02 2.9028663023e-22 1.6296506434e-02 2.3030067972e-02 -2.8318817346e-22 2.1368965901e-04 -4.9546854908e-04 5.7347480369e-22
9.242619           1.6677938809e-02 2.3249887335e-02 3.3080080023e-22 1.6467317976e-02 2.3735913299e-02 -2.8618056551e-22 2.1062083290e-04 -4.8602596371e-04 6.1698136574e-22
9.370988           1.6836348252e-02 2.3961561302e-02 3.6238650515e-22 1.6628510831e-02 2.4437998516e-02 -2.8924289027e-22 2.0783742109e-04 -4.7643721414e-04 6.5162939542e-22
9.499358           1.6979369249e-02 2.4668713853e-02 3.3735516222e-22 1.6774013578e-02 2.5135405513e-02 -2.9234779184e-22 2.0535567144e-04 -4.6669166011e-04 6.2970295405e-22
9.627728           1.7102025471e-02 2.5367144325e-02 1.7557427904e-22 1.6898870683e-02 2.5823912582e-02 -2.9543648723e-22 2.0315478755e-04 -4.5676825699e-04 4.7101076627e-22
9.756098           1.7204214019e-02 2.6053200543e-02 1.1573885665e-22 1.7003016919e-02 2.6499870132e-02 -2.9849636498e-22 2.0119710003e-04 -4.4666958933e-04 4.1423522162e-22
9.884467           1.7286233280e-02 2.6726881840e-02 -8.7862041414e-23 1.7086778855e-02 2.7163309330e-02 -3.0152040708e-22 1.9945442484e-04 -4.3642748995e-04 2.1365836566e-22
10.012837          1.7347353733e-02 2.7387775400e-02 5.7930816615e-23 1.7149435303e-02 2.7813860600e-02 -3.0451643011e-22 1.9791842958e-04 -4.2608519999e-04 3.6244724673e-22
10.141207          1.7388537325e-02 2.8036930263e-02 -9.0157403754e-24 1.7191944175e-02 2.8452606640e-02 -3.0749094509e-22 1.9659315040e-04 -4.1567637644e-04 2.9847520472e-22
10.269576          1.7408873378e-02 2.8674933980e-02 9.6958186716e-23 1.7213393263e-02 2.9080138598e-02 -3.1041837287e-22 1.9548011528e-04 -4.0520461799e-04 4.0737655959e-22
10.397946          1.7409461478e-02 2.9299810158e-02 8.4808915368e-23 1.7214891729e-02 2.9694476992e-02 -3.1329933695e-22 1.9456974866e-04 -3.9466683395e-04 3.9810825232e-22
10.526316          1.7391913868e-02 2.9910242791e-02 9.9730363538e-23 1.7198070194e-02 3.0294309106e-02 -3.1612441658e-22 1.9384367359e-04 -3.8406631565e-04 4.1585478012e-22
10.654685          1.7357328826e-02 3.0506331108e-02 -2.9102461385e-23 1.7164043742e-02 3.0879748970e-02 -3.1889638834e-22 1.9328508382e-04 -3.7341786195e-04 2.8979392695e-22
10.783055          1.7314890326e-02 3.1025204378e-02 -1.3069365566e-22 1.7121999074e-02 3.1387997188e-02 -3.2126512262e-22 1.9289125249e-04 -3.6279281010e-04 1.9057146696e-22
10.911425          1.7247418070e-02 3.1666249500e-02 2.0778709481e-23 1.7054838543e-02 3.2018812732e-02 -3.2439034018e-22 1.9257952742e-04 -3.5256323216e-04 3.4516904966e-22
11.039795          1.7174083658e-02 3.2198805875e-02 3.1063846129e-23 1.6981602799e-02 3.2540789368e-02 -3.2691711720e-22 1.9248085932e-04 -3.4198349280e-04 3.5798096333e-22
11.168164          1.7082917795e-02 3.2732637787e-02 1.1460942402e-22 1.6890465858e-02 3.3064446117e-02 -3.2954288303e-22 1.9245193680e-04 -3.3180832933e-04 4.4415230705e-22
11.296534          1.6975251169e-02 3.3269163281e-02 2.3409767385e-22 1.6782734662e-02 3.3590877535e-02 -3.3227878761e-22 1.9251650741e-04 -3.2171425440e-04 5.6637646147e-22
11.424904          1.6855557493e-02 3.3794720859e-02 6.8902389192e-23 1.6662879385e-02 3.4106338152e-02 -3.3503627528e-22 1.9267810774e-04 -3.1161729331e-04 4.0393866448e-22
11.553273          1.6725313003e-02 3.4297885849e-02 -6.2851160669e-23 1.6532367445e-02 3.4599372139e-02 -3.3770984695e-22 1.9294555800e-04 -3.0148629012e-04 2.7485868628e-22
11.681643          1.6587487081e-02 3.4776003063e-02 1.6257890128e-22 1.6394157678e-02 3.5067316127e-02 -3.4029711712e-22 1.9332940388e-04 -2.9131306410e-04 5.0287601840e-22
11.810013          1.6442253125e-02 3.5237686127e-02 1.5673261539e-22 1.6248415690e-02 3.5518796886e-02 -3.4283204675e-22 1.9383743507e-04 -2.8111075904e-04 4.9956466214e-22
11.938383          1.6289857800e-02 3.5691438795e-02 2.0394743198e-22 1.6095386453e-02 3.5962345451e-02 -3.4538657402e-22 1.9447134716e-04 -2.7090665695e-04 5.4933400600e-22
12.066752          1.6130664552e-02 3.6139363452e-02 -5.1692795347e-23 1.5935435548e-02 3.6400104054e-02 -3.4800208554e-22 1.9522900391e-04 -2.6074060181e-04 2.9630929019e-22
12.195122          1.5963657545e-02 3.6578704845e-02 8.5228277198e-24 1.5767548934e-02 3.6829342443e-02 -3.5065206918e-22 1.9610861122e-04 -2.5063759817e-04 3.5917489690e-22
12.323492          1.5788589071e-02 3.7004696837e-02 7.3447297737e-23 1.5591479072e-02 3.7245302321e-02 -3.5326674290e-22 1.9710999914e-04 -2.4060548329e-04 4.2671404064e-22
12.451861          1.5607157277e-02 3.7414606530e-02 3.9819515597e-22 1.5408924791e-02 3.7645250938e-02 -3.5580929303e-22 1.9823248631e-04 -2.3064440796e-04 7.5400444900e-22
12.580231          1.5421925698e-02 3.7809633939e-02 3.0695466534e-22 1.5222450941e-02 3.8030394663e-02 -3.5829796449e-22 1.9947475764e-04 -2.2076072371e-04 6.6525262983e-22
12.708601          1.5233926778e-02 3.8194487047e-02 5.9411175715e-22 1.5033092212e-02 3.8405450186e-02 -3.6076104800e-22 2.0083456611e-04 -2.1096313955e-04 9.5487280515e-22
12.836970          1.5042807577e-02 3.8572001048e-02 3.2250581643e-22 1.4840499088e-02 3.8773260542e-02 -3.6318842117e-22 2.0230848944e-04 -2.0125949447e-04 6.8569423760e-22
12.965340          1.4848314788e-02 3.8941774049e-02 3.8666635546e-23 1.4644422355e-02 3.9133434600e-02 -3.6557115576e-22 2.0389243283e-04 -1.9166055070e-04 4.0423779130e-22
13.093710          1.4650479686e-02 3.9301690283e-02 2.6810656989e-22 1.4444895325e-02 3.9483866593e-02 -3.6788593279e-22 2.0558436070e-04 -1.8217630962e-04 6.3599250268e-22
13.222080          1.4452673304e-02 3.9656310219e-02 4.8866023953e-22 1.4245285490e-02 3.9829037836e-02 -3.7009992081e-22 2.0738781342e-04 -1.7272761631e-04 8.5876016034e-22
13.350449          1.4253014569e-02 4.0000890226e-02 5.9605944310e-22 1.4043745088e-02 4.0164311367e-02 -3.7221592683e-22 2.0926948132e-04 -1.6342114157e-04 9.6827536993e-22
13.478819          1.4050528309e-02 4.0332468299e-02 6.2901384169e-22 1.3839270020e-02 4.0486727513e-02 -3.7424987937e-22 2.1125828809e-04 -1.5425921450e-04 1.0032637211e-21
13.607189          1.3846171309e-02 4.0650962836e-02 6.2418652702e-22 1.3632786359e-02 4.0796195418e-02 -3.7623234807e-22 2.1338494936e-04 -1.4523258199e-04 1.0004188751e-21
13.735558          1.3642053726e-02 4.0959240758e-02 3.5954344387e-22 1.3426399973e-02 4.1095577390e-02 -3.7816537498e-22 2.1565375316e-04 -1.3633663218e-04 7.3770881885e-22
13.863928          1.3439816811e-02 4.1260607987e-02 5.1321087137e-22 1.3221775874e-02 4.1388188997e-02 -3.8002612584e-22 2.1804093677e-04 -1.2758100939e-04 8.9323699721e-22
13.992298          1.3240227097e-02 4.1557088494e-02 6.2205364401e-22 1.3019711877e-02 4.1676067389e-02 -3.8180142317e-22 2.2051522018e-04 -1.1897889581e-04 1.0038550672e-21
14.120668          1.3043257924e-02 4.1848564490e-02 4.6800395631e-22 1.2820198726e-02 4.1959103140e-02 -3.8348310810e-22 2.2305919833e-04 -1.1053865001e-04 8.5148706441e-22
14.249037          1.2848124001e-02 4.2132941955e-02 6.5751160468e-22 1.2622445616e-02 4.2235204957e-02 -3.8508780785e-22 2.2567838464e-04 -1.0226300210e-04 1.0425994125e-21
14.377407          1.2654556062e-02 4.2408356914e-02 7.9721364329e-22 1.2426165259e-02 4.2502508778e-02 -3.8663560603e-22 2.2839080256e-04 -9.4151863619e-05 1.1838492493e-21
14.505777          1.2463197067e-02 4.2674694450e-02 8.3311070054e-22 1.2231986833e-02 4.2760901656e-02 -3.8813289311e-22 2.3121023405e-04 -8.6207205419e-05 1.2212435937e-21
14.634146          1.2275095000e-02 4.2933240454e-02 8.6068464667e-22 1.2040958832e-02 4.3011673296e-02 -3.8957380967e-22 2.3413616855e-04 -7.8432841638e-05 1.2502584563e-21
14.762516          1.2064431212e-02 4.3221491723e-02 7.0379311780e-22 1.1827296968e-02 4.3292299701e-02 -3.9120258609e-22 2.3713424463e-04 -7.0807977237e-05 1.0949957039e-21
14.890886          1.1909746558e-02 4.3433932948e-02 6.2303118353e-22 1.1669102910e-02 4.3496831007e-02 -3.9227614725e-22 2.4064364815e-04 -6.2898059233e-05 1.0153073308e-21
15.019255          1.1730894208e-02 4.3681302232e-02 5.8204961399e-22 1.1486897000e-02 4.3736774328e-02 -3.9355219193e-22 2.4399720819e-04 -5.5472096310e-05 9.7560180591e-22
15.147625          1.1563348751e-02 4.3919921446e-02 7.4514223700e-22 1.1315653364e-02 4.3967884938e-02 -3.9478508804e-22 2.4769538739e-04 -4.7963492186e-05 1.1399273250e-21
15.275995          1.1403809793e-02 4.4150201009e-02 6.0932671998e-22 1.1152291384e-02 4.4190868362e-02 -3.9600407647e-22 2.5151840832e-04 -4.0667353461e-05 1.0053307964e-21
15.404365          1.1247783833e-02 4.4375855487e-02 8.3577037459e-22 1.0992381636e-02 4.4409519304e-02 -3.9722391807e-22 2.5540219717e-04 -3.3663817350e-05 1.2329942927e-21
15.532734          1.1093835388e-02 4.4599566968e-02 9.6413926143e-22 1.0834520356e-02 4.4626532105e-02 -3.9844148760e-22 2.5931503147e-04 -2.6965137347e-05 1.3625807490e-21
15.661104          1.0946999830e-02 4.4837370317e-02 1.0831313789e-21 1.0683858840e-02 4.4857961296e-02 -3.9957311002e-22 2.6314098973e-04 -2.0590978978e-05 1.4827044889e-21
15.789474          1.0807985449e-02 4.5067328190e-02 1.1023501787e-21 1.0541037583e-02 4.5081829328e-02 -4.0068153098e-22 2.6694786576e-04 -1.4501138311e-05 1.5030317097e-21
15.917843          1.0675301342e-02 4.5276732524e-02 1.0544277487e-21 1.0404527221e-02 4.5285392065e-02 -4.0183047296e-22 2.7077412103e-04 -8.6595408920e-06 1.4562582217e-21
16.046213          1.0547219348e-02 4.5469906966e-02 1.0391550864e-21 1.0272575309e-02 4.5472942827e-02 -4.0303455055e-22 2.7464403906e-04 -3.0358614767e-06 1.4421896370e-21
16.174583          1.0423675050e-02 4.5660105520e-02 1.2283135802e-21 1.0145126893e-02 4.5657730332e-02 -4.0425878620e-22 2.7854815672e-04 2.3751872837e-06 1.6325723664e-21
16.302953          1.0306196980e-02 4.5856534427e-02 1.0464492182e-21 1.0023736349e-02 4.5848968858e-02 -4.0545711619e-22 2.8246063057e-04 7.5655687629e-06 1.4519063344e-21
16.431322          1.0196171005e-02 4.6058345219e-02 1.2026972169e-21 9.9098071386e-03 4.6045813008e-02 -4.0661112468e-22 2.8636386630e-04 1.2532211482e-05 1.6093083416e-21
16.559692          1.0093546425e-02 4.6258240622e-02 1.0850565647e-21 9.8032857323e-03 4.6240955641e-02 -4.0774036574e-22 2.9026069235e-04 1.7284981147e-05 1.4927969304e-21
16.688062          9.9972329565e-03 4.6450254871e-02 1.4864248218e-21 9.7030653998e-03 4.6428414519e-02 -4.0887998194e-22 2.9416755675e-04 2.1840352377e-05 1.8953048037e-21
16.816431          9.9064884431e-03 4.6634502686e-02 1.3421642810e-21 9.6083908532e-03 4.6608292670e-02 -4.1005039134e-22 2.9809758987e-04 2.6210015343e-05 1.7522146724e-21
16.944801          9.8213002906e-03 4.6815264361e-02 1.4086050309e-21 9.5192499317e-03 4.6784868658e-02 -4.1124617910e-22 3.0205035896e-04 3.0395702127e-05 1.8198512100e-21
17.073171          9.7424062566e-03 4.6996799849e-02 1.4071454797e-21 9.4363920362e-03 4.6962405612e-02 -4.1244297610e-22 3.0601422039e-04 3.4394236605e-05 1.8195884558e-21
17.201540          9.6704864618e-03 4.7180064820e-02 1.1827026542e-21 9.3605089368e-03 4.7141859737e-02 -4.1362155953e-22 3.0997752506e-04 3.8205083730e-05 1.5963242137e-21
17.329910          9.6055545789e-03 4.7362877031e-02 1.3200288295e-21 9.2916176015e-03 4.7321043783e-02 -4.1478233883e-22 3.1393697734e-04 4.1833247955e-05 1.7348111683e-21
17.458280          9.5469144203e-03 4.7542734729e-02 1.2811973092e-21 9.2290173900e-03 4.7497448482e-02 -4.1594019803e-22 3.1789703029e-04 4.5286246967e-05 1.6971375072e-21
17.586650          9.4939583008e-03 4.7719047817e-02 1.3594105169e-21 9.1720952311e-03 4.7670478069e-02 -4.1710983583e-22 3.2186306976e-04 4.8569748815e-05 1.7765203528e-21
17.715019          9.4466111066e-03 4.7893184456e-02 1.5591494103e-21 9.1207756443e-03 4.7841498385e-02 -4.1829456663e-22 3.2583546225e-04 5.1686070149e-05 1.9774439769e-21
17.843389          9.4019313892e-03 4.8078692163e-02 1.3844245580e-21 9.0721250596e-03 4.8024047661e-02 -4.1958429980e-22 3.2980632968e-04 5.4644502016e-05 1.8040088578e-21
17.971759          9.3692434685e-03 4.8240047488e-02 1.4801118487e-21 9.0352611684e-03 4.8182550040e-02 -4.2066674506e-22 3.3398230015e-04 5.7497448740e-05 1.9007785937e-21
18.100128          9.3417402035e-03 4.8406059570e-02 1.4557705535e-21 9.0037295377e-03 4.8345929015e-02 -4.2177923716e-22 3.3801066575e-04 6.0130555424e-05 1.8775497907e-21
18.228498          9.3170267545e-03 4.8593266674e-02 1.4038968060e-21 8.9750607966e-03 4.8530671449e-02 -4.2307158669e-22 3.4196595788e-04 6.2595224412e-05 1.8269683927e-21
18.356868          9.2985442701e-03 4.8771153683e-02 1.6285359403e-21 8.9524664126e-03 4.8706212444e-02 -4.2430986957e-22 3.4607785745e-04 6.4941239177e-05 2.0528458099e-21
18.485237          9.2852692820e-03 4.8937218583e-02 1.4320197588e-21 8.9350517462e-03 4.8870090164e-02 -4.2546865313e-22 3.5021753581e-04 6.7128419198e-05 1.8574884119e-21
18.613607          9.2774567435e-03 4.9100039626e-02 1.3263843938e-21 8.9231124722e-03 4.9030887756e-02 -4.2660565241e-22 3.5434427132e-04 6.9151869959e-05 1.7529900462e-21
18.741977          9.2758176067e-03 4.9268166883e-02 1.4601637657e-21 8.9173847809e-03 4.9197151968e-02 -4.2778658848e-22 3.5843282583e-04 7.1014914321e-05 1.8879503541e-21
18.870347          9.2799038780e-03 4.9442583788e-02 1.7208786618e-21 8.9174380601e-03 4.9369864011e-02 -4.2902325999e-22 3.6246581789e-04 7.2719776622e-05 2.1499019218e-21
18.998716          9.2882078068e-03 4.9618320019e-02 1.6576715690e-21 8.9217674555e-03 4.9544050362e-02 -4.3027803869e-22 3.6644035125e-04 7.4269656996e-05 2.0879496077e-21
19.127086          9.2996981448e-03 4.9790770169e-02 1.5782235416e-21 8.9293329995e-03 4.9715097676e-02 -4.3151286042e-22 3.7036514533e-04 7.5672492983e-05 2.0097364021e-21
19.255456          9.3148455177e-03 4.9959682919e-02 1.7165928656e-21 8.9405954423e-03 4.9882743096e-02 -4.3272488045e-22 3.7425007536e-04 7.6939823232e-05 2.1493177461e-21
19.383825          9.3348803760e-03 5.0128059134e-02 1.8840667355e-21 8.9567827034e-03 5.0049977585e-02 -4.3393986728e-22 3.7809767258e-04 7.8081548720e-05 2.3180066027e-21
19.512195          9.3603149463e-03 5.0298592559e-02 1.8469163998e-21 8.9784118018e-03 5.0219490245e-02 -4.3518108770e-22 3.8190314455e-04 7.9102314125e-05 2.2820974875e-21
19.640565          9.3903298431e-03 5.0471482872e-02 1.5747506497e-21 9.0046692142e-03 5.0391480023e-02 -4.3644938638e-22 3.8566062891e-04 8.0002848930e-05 2.0112000361e-21
19.768935          9.4235960497e-03 5.0645120198e-02 1.6578449795e-21 9.0342277689e-03 5.0564336056e-02 -4.3772842882e-22 3.8936828080e-04 8.0784141664e-05 2.0955734084e-21
19.897304          9.4594605846e-03 5.0818055414e-02 1.5502133939e-21 9.0664322796e-03 5.0736605109e-02 -4.3900497157e-22 3.9302830497e-04 8.1450305010e-05 1.9892183654e-21
20.025674          9.4982439404e-03 5.0990220393e-02 1.5266933181e-21 9.1016007825e-03 5.0908212482e-02 -4.4028057174e-22 3.9664315790e-04 8.2007911730e-05 1.9669738898e-21
20.154044          9.5406854798e-03 5.1162528845e-02 1.4353545011e-21 9.1404729370e-03 5.1080065517e-02 -4.4156566957e-22 4.0021254282e-04 8.2463327846e-05 1.8769201707e-21
20.282413          9.5869328672e-03 5.1335857349e-02 1.5822496840e-21 9.1831995843e-03 5.1253036573e-02 -4.4286886834e-22 4.0373328285e-04 8.2820775702e-05 2.0251185523e-21
20.410783          9.6378089488e-03 5.1515236085e-02 1.3214803540e-21 9.2306060231e-03 5.1432149759e-02 -4.4423377229e-22 4.0720292572e-04 8.3086326047e-05 1.7657141263e-21
20.539153          9.6890444463e-03 5.1689401348e-02 1.3628800529e-21 9.2783408443e-03 5.1606168155e-02 -4.4555403357e-22 4.1070360198e-04 8.3233193509e-05 1.8084340865e-21
20.667522          9.7411618899e-03 5.1860636692e-02 1.3165699667e-21 9.3269963939e-03 5.1777355216e-02 -4.4685048430e-22 4.1416549599e-04 8.3281475956e-05 1.7634204510e-21
20.795892          9.7963866379e-03 5.2033465895e-02 1.3689573558e-21 9.3788225705e-03 5.1950225874e-02 -4.4816904394e-22 4.1756406736e-04 8.3240020907e-05 1.8171263997e-21
20.924262          9.8556400952e-03 5.2209807931e-02 1.3082673825e-21 9.4347503741e-03 5.2126692709e-02 -4.4953037738e-22 4.2088972112e-04 8.3115221723e-05 1.7577977599e-21
21.052632          9.9176121160e-03 5.2388164745e-02 1.3235798609e-21 9.4934726268e-03 5.2305252808e-02 -4.5091788667e-22 4.2413948917e-04 8.2911936317e-05 1.7744977476e-21
21.181001          9.9786260587e-03 5.2561546725e-02 1.3797611144e-21 9.5513124059e-03 5.2478915566e-02 -4.5226141324e-22 4.2731365279e-04 8.2631158764e-05 1.8320225276e-21
21.309371          1.0042290741e-02 5.2738958337e-02 1.4230859386e-21 9.6119470463e-03 5.2656641307e-02 -4.5364590596e-22 4.3034369447e-04 8.2317030030e-05 1.8767318445e-21
21.437741          1.0108349522e-02 5.2918762752e-02 1.4380338445e-21 9.6750591599e-03 5.2836812869e-02 -4.5505883129e-22 4.3329036198e-04 8.1949882707e-05 1.8930926758e-21
21.566110          1.0175405254e-02 5.3098020193e-02 1.4018455584e-21 9.7392300560e-03 5.3016493587e-02 -4.5647250314e-22 4.3617519793e-04 8.1526606069e-05 1.8583180616e-21
21.694480          1.0242519918e-02 5.3275480232e-02 1.7227818656e-21 9.8035141138e-03 5.3194434323e-02 -4.5787317876e-22 4.3900580400e-04 8.1045909188e-05 2.1806550444e-21
21.822850          1.0309981086e-02 5.3452048976e-02 1.6647990511e-21 9.8681981010e-03 5.3371541008e-02 -4.5926903870e-22 4.4178298481e-04 8.0507968719e-05 2.1240680898e-21
21.951220          1.0378594715e-02 5.3629204492e-02 1.5156297410e-21 9.9340916123e-03 5.3549289220e-02 -4.6067585656e-22 4.4450310232e-04 7.9915271517e-05 1.9763055975e-21