# Force           
# CofR            : (0.0000000000e+00 0.0000000000e+00 0.0000000000e+00)
#
# Time            	total_x total_y total_z	pressure_x pressure_y pressure_z	viscous_x viscous_y viscous_z
0.114926           2.0301377757e+00 1.9527541493e-04 8.4796320931e-22 2.0258215913e+00 1.0938470616e-04 -1.6343062568e-22 4.3161844140e-03 8.5890708767e-05 1.0113938350e-21
0.244135           -6.9664412672e-02 1.0990877956e-03 -1.2086564851e-16 -7.4308875084e-02 9.7207267898e-04 -1.2309429978e-20 4.6444624120e-03 1.2701511662e-04 -1.2085333908e-16
0.382834           -5.1402729456e-01 2.0443612993e-03 -9.0949642548e-16 -5.1819905300e-01 1.9258880360e-03 -1.4098163155e-20 4.1717584346e-03 1.1847326339e-04 -9.0948232732e-16
0.509291           -6.4650502556e-02 3.3376122041e-03 -2.2697258966e-15 -6.8212887041e-02 3.2304780433e-03 -5.0474863859e-21 3.5623844845e-03 1.0713416075e-04 -2.2697208491e-15
0.628285           9.6500536076e-02 2.6531962974e-03 -2.7860800630e-15 9.3186070296e-02 2.5596486347e-03 4.4849285835e-21 3.3144657802e-03 9.3547662717e-05 -2.7860845479e-15
0.744291           -4.6889489354e-02 3.3734618923e-03 -2.7284430643e-15 -5.0064711234e-02 3.2959768353e-03 -4.0195252904e-21 3.1752218797e-03 7.7485056990e-05 -2.7284390448e-15
0.858799           -9.4681080367e-02 4.1651986976e-03 -2.7926970407e-15 -9.7637735518e-02 4.1091617989e-03 -1.4251273855e-20 2.9566551508e-03 5.6036898714e-05 -2.7926827894e-15
0.973480           -1.0504128202e-02 4.2281742423e-03 -2.6017901722e-15 -1.3270505636e-02 4.1982270481e-03 -3.2520607013e-21 2.7663774349e-03 2.9947194127e-05 -2.6017869201e-15
1.088443           1.0702683218e-02 4.9104912761e-03 -2.3319019084e-15 8.0663669002e-03 4.9098181239e-03 6.6615551181e-21 2.6363163181e-03 6.7315226643e-07 -2.3319085699e-15
1.203443           -1.0936824356e-02 4.5323076653e-03 -2.1529914571e-15 -1.3456587342e-02 4.5620667339e-03 -5.5245875677e-21 2.5197629868e-03 -2.9759068649e-05 -2.1529859325e-15
1.318562           -1.2555581102e-02 4.6663410218e-03 -1.9993657489e-15 -1.4956157094e-02 4.7281016657e-03 -8.2224741269e-21 2.4005759927e-03 -6.1760643921e-05 -1.9993575264e-15
1.433968           -5.0208113025e-03 4.7512675034e-03 -1.8535455748e-15 -7.3105693702e-03 4.8473394400e-03 -4.7354687356e-21 2.2897580676e-03 -9.6071936549e-05 -1.8535408393e-15
1.549840           -3.5907633344e-03 4.7914164057e-03 -1.7200557080e-15 -5.7807415950e-03 4.9228548630e-03 -5.0951121467e-21 2.1899782606e-03 -1.3143845730e-04 -1.7200506129e-15
1.666174           -2.5362269643e-03 4.7866329350e-03 -1.6020745107e-15 -4.6327132813e-03 4.9537566965e-03 -5.3628755062e-21 2.0964863170e-03 -1.6712376149e-04 -1.6020691479e-15
1.783082           -1.4723016237e-03 4.8099851494e-03 -1.4866222596e-15 -3.4795170730e-03 5.0131550212e-03 -5.1989547334e-21 2.0072154493e-03 -2.0316987185e-04 -1.4866170606e-15
1.900693           -5.8074402530e-04 4.7825439818e-03 -1.3702082395e-15 -2.5027555538e-03 5.0216978106e-03 -5.0888684583e-21 1.9220115285e-03 -2.3915382886e-04 -1.3702031506e-15
2.019098           1.9413198085e-04 4.7689695270e-03 -1.2774693058e-15 -1.6464058651e-03 5.0438194223e-03 -4.3054275761e-21 1.8405378459e-03 -2.7484989527e-04 -1.2774650004e-15
2.138369           8.5091133245e-04 4.7507333302e-03 -1.1895030036e-15 -9.1116733235e-04 5.0607939362e-03 -3.6012124211e-21 1.7620786648e-03 -3.1006060601e-04 -1.1894994024e-15
2.258457           1.4633306162e-03 4.6730701135e-03 -1.0970991711e-15 -2.2298167843e-04 5.0174103523e-03 -2.9156951141e-21 1.6863122947e-03 -3.4434023882e-04 -1.0970962554e-15
2.379436           1.9557912039e-03 4.6143326961e-03 -1.0105025143e-15 3.4276131796e-04 4.9917504789e-03 -2.1474380625e-21 1.6130298860e-03 -3.7741778286e-04 -1.0105003668e-15
2.501369           2.3877072284e-03 4.5416478846e-03 -9.2831837080e-16 8.4565284217e-04 4.9507101973e-03 -1.4326812397e-21 1.5420543862e-03 -4.0906231270e-04 -9.2831693812e-16
2.624302           2.7568278575e-03 4.4766750603e-03 -8.4989202129e-16 1.2835888107e-03 4.9157382682e-03 -7.5006561820e-22 1.4732390469e-03 -4.3906320786e-04 -8.4989127123e-16
2.748274           3.0791426544e-03 4.4076805725e-03 -7.8066575307e-16 1.6727414981e-03 4.8749987163e-03 -2.8805090868e-22 1.4064011562e-03 -4.6731814379e-04 -7.8066546501e-16
2.873201           3.3673410837e-03 4.3552906722e-03 -7.2405258579e-16 2.0259107033e-03 4.8490044090e-03 -1.7024101155e-22 1.3414303804e-03 -4.9371373672e-04 -7.2405241555e-16
2.999120           3.6147468585e-03 4.2914803142e-03 -6.8228749257e-16 2.3364797231e-03 4.8096007570e-03 -3.8653424120e-22 1.2782671354e-03 -5.1812044277e-04 -6.8228710604e-16
3.126100           3.8365487987e-03 4.2411002010e-03 -6.5959813219e-16 2.6197044078e-03 4.7816292478e-03 -9.8262378404e-22 1.2168443908e-03 -5.4052904675e-04 -6.5959714957e-16
3.254097           4.0345341831e-03 4.1941174903e-03 -6.5576862309e-16 2.8773781215e-03 4.7550128396e-03 -1.8094896890e-21 1.1571560617e-03 -5.6089534931e-04 -6.5576681360e-16
3.383014           4.2060456745e-03 4.1644845250e-03 -6.7499222626e-16 3.1068204894e-03 4.7436557319e-03 -3.0930989047e-21 1.0992251851e-03 -5.7917120696e-04 -6.7498913316e-16
3.512913           4.3702969672e-03 4.1352740185e-03 -7.2190195353e-16 3.3272919927e-03 4.7306588357e-03 -4.5281001233e-21 1.0430049746e-03 -5.9538481724e-04 -7.2189742543e-16
3.642916           4.4945024654e-03 4.1113623237e-03 -7.9504819388e-16 3.5056960917e-03 4.7209671695e-03 -5.8424239583e-21 9.8880637370e-04 -6.0960484581e-04 -7.9504235146e-16
3.772912           4.6189534574e-03 4.1026925780e-03 -8.9358664139e-16 3.6823660089e-03 4.7245350528e-03 -6.9589265201e-21 9.3658744848e-04 -6.2184247478e-04 -8.9357968246e-16
3.902844           4.7247591794e-03 4.0983235360e-03 -1.0139357095e-15 3.8383370241e-03 4.7303019482e-03 -8.0486319634e-21 8.8642215533e-04 -6.3197841219e-04 -1.0139276609e-15
4.032670           4.8181487137e-03 4.1100611589e-03 -1.1504276189e-15 3.9797965990e-03 4.7502515383e-03 -8.4982873849e-21 8.3835211477e-04 -6.4019037944e-04 -1.1504191206e-15
4.162354           4.9393582180e-03 4.1597165537e-03 -1.2826999961e-15 4.1470127990e-03 4.8063691832e-03 -8.6932281083e-21 7.9234541901e-04 -6.4665262948e-04 -1.2826913029e-15
4.291858           5.0089221663e-03 4.1798388045e-03 -1.4249662923e-15 4.2604128522e-03 4.8311569698e-03 -8.1894443155e-21 7.4850931406e-04 -6.5131816533e-04 -1.4249581029e-15
4.421177           5.1216096688e-03 4.2279765065e-03 -1.5694320386e-15 4.4147570258e-03 4.8822855584e-03 -7.5088838012e-21 7.0685264299e-04 -6.5430905195e-04 -1.5694245297e-15
4.550310           5.1911070916e-03 4.2751030190e-03 -1.6972455131e-15 4.5238263061e-03 4.9309789470e-03 -6.1998582670e-21 6.6728078544e-04 -6.5587592804e-04 -1.6972393132e-15
4.679258           5.3213533498e-03 4.3489438773e-03 -1.8023923785e-15 4.6916198309e-03 5.0050409363e-03 -4.7212406246e-21 6.2973351889e-04 -6.5609705901e-04 -1.8023876573e-15
4.808023           5.3853640956e-03 4.3820309626e-03 -1.8603102961e-15 4.7912078242e-03 5.0371666956e-03 -3.3131175684e-21 5.9415627141e-04 -6.5513573300e-04 -1.8603069830e-15
4.936607           5.5221882908e-03 4.4521774061e-03 -1.8788017617e-15 4.9617848172e-03 5.1054004211e-03 -1.5606771576e-21 5.6040347360e-04 -6.5322301497e-04 -1.8788002010e-15
5.065017           5.6107685917e-03 4.5219121864e-03 -1.8693799067e-15 5.0823364875e-03 5.1722878656e-03 -4.0572149602e-22 5.2843210413e-04 -6.5037567917e-04 -1.8693795009e-15
5.193258           5.7634225440e-03 4.6036840882e-03 -1.8425643290e-15 5.2652889712e-03 5.2503865484e-03 1.0295828956e-21 4.9813357276e-04 -6.4670246025e-04 -1.8425653586e-15
5.321338           5.8478027142e-03 4.6461995261e-03 -1.8057870009e-15 5.3783615422e-03 5.2885495812e-03 1.8604718259e-21 4.6944117199e-04 -6.4235005506e-04 -1.8057888614e-15
5.449266           6.0421093915e-03 4.7606941445e-03 -1.7512481518e-15 5.5998877829e-03 5.3981309350e-03 2.5364393051e-21 4.4222160862e-04 -6.3743679051e-04 -1.7512506883e-15
5.577051           6.1242124610e-03 4.7780039932e-03 -1.6886799460e-15 5.7077222946e-03 5.4099852377e-03 2.5640293751e-21 4.1649016634e-04 -6.3198124456e-04 -1.6886825100e-15
5.704701           6.3388132588e-03 4.8789721697e-03 -1.6149216737e-15 5.9467272454e-03 5.5050994700e-03 2.1863350173e-21 3.9208601340e-04 -6.2612730037e-04 -1.6149238600e-15
5.832222           6.4123038061e-03 4.8782644030e-03 -1.5126811339e-15 6.0434076827e-03 5.4981984213e-03 1.3139050482e-21 3.6889612337e-04 -6.1993401837e-04 -1.5126824478e-15
5.959618           6.6403292759e-03 4.9696369865e-03 -1.3969519404e-15 6.2934459654e-03 5.5830875328e-03 1.1139969345e-22 3.4688331050e-04 -6.1345054632e-04 -1.3969520518e-15
6.086897           6.7567243979e-03 4.9852893603e-03 -1.2730220607e-15 6.4307818746e-03 5.5920657606e-03 -1.0261320525e-21 3.2594252326e-04 -6.0677640031e-04 -1.2730210346e-15
6.214061           6.9510699766e-03 5.0330055997e-03 -1.1410315126e-15 6.6452140587e-03 5.6329731317e-03 -1.7082477569e-21 3.0585591789e-04 -5.9996753201e-04 -1.1410298043e-15
6.341118           7.1096056087e-03 5.0554793866e-03 -1.0025220206e-15 6.8230009979e-03 5.6485570166e-03 -1.5938784796e-21 2.8660461081e-04 -5.9307762997e-04 -1.0025204267e-15
6.468071           7.2973782207e-03 5.0578824731e-03 -8.4651583889e-16 7.0292234515e-03 5.6439929286e-03 -8.7035165667e-22 2.6815476928e-04 -5.8611045548e-04 -8.4651496854e-16
6.594927           7.4496257752e-03 5.0702923833e-03 -6.8785624211e-16 7.1992071270e-03 5.6493728342e-03 3.8913444669e-22 2.5041864822e-04 -5.7908045091e-04 -6.8785663124e-16
6.721689           7.6461433183e-03 5.0632507267e-03 -5.2399770215e-16 7.4127370352e-03 5.6352287535e-03 1.7273971176e-21 2.3340628318e-04 -5.7197802678e-04 -5.2399942955e-16
6.848360           7.7921652202e-03 5.0546578242e-03 -3.7443933975e-16 7.5751284986e-03 5.6194790084e-03 2.9101798536e-21 2.1703672159e-04 -5.6482118421e-04 -3.7444224993e-16
6.974943           7.9928713226e-03 5.0217869546e-03 -2.3057830473e-16 7.7915811639e-03 5.5793996454e-03 3.6599242952e-21 2.0129015875e-04 -5.5761269082e-04 -2.3058196465e-16
7.101156           8.1267948313e-03 4.9975433476e-03 -9.2908627849e-17 7.9406396357e-03 5.5479569593e-03 3.8858763122e-21 1.8615519564e-04 -5.5041361168e-04 -9.2912513725e-17
7.226770           8.3251319896e-03 4.9633793308e-03 2.2689235488e-17 8.1535482297e-03 5.5065956444e-03 3.6129778534e-21 1.7158375983e-04 -5.4321631357e-04 2.2685622511e-17
7.351764           8.4316743364e-03 4.9055784771e-03 1.1830373741e-16 8.2741278122e-03 5.4415727416e-03 2.7850353515e-21 1.5754652416e-04 -5.3599426449e-04 1.1830095237e-16
7.476225           8.6160446074e-03 4.8697320161e-03 1.9287703665e-16 8.4720392420e-03 5.3985007308e-03 1.7019556261e-21 1.4400536536e-04 -5.2876871467e-04 1.9287533469e-16
7.600179           8.7378509334e-03 4.7905875333e-03 2.4478327612e-16 8.6068596454e-03 5.3121044656e-03 3.2249775415e-22 1.3099128799e-04 -5.2151693228e-04 2.4478295363e-16
7.723656           8.8844209614e-03 4.7400419180e-03 2.7747816495e-16 8.7659441246e-03 5.2542786846e-03 -1.0277461588e-21 1.1847683680e-04 -5.1423676663e-04 2.7747919269e-16
7.846738           9.0122620456e-03 4.6541580618e-03 2.9801723167e-16 8.9058446242e-03 5.1610986445e-03 -2.4060718604e-21 1.0641742141e-04 -5.0694058266e-04 2.9801963774e-16
7.969457           9.1334258988e-03 4.5861770807e-03 3.0985853282e-16 9.0386210999e-03 5.0858120907e-03 -3.5846962677e-21 9.4804798912e-05 -4.9963501006e-04 3.0986211752e-16
8.091836           9.2662756988e-03 4.4937851105e-03 3.1009100820e-16 9.1826704529e-03 4.9860999251e-03 -4.6630987185e-21 8.3605245825e-05 -4.9231481456e-04 3.1009567130e-16
8.213900           9.3450091165e-03 4.4197793591e-03 2.6787042050e-16 9.2721766977e-03 4.9047341940e-03 -5.5489391770e-21 7.2832418873e-05 -4.8495483494e-04 2.6787596944e-16
8.335679           9.4706395635e-03 4.3362296535e-03 1.9697287173e-16 9.4081854807e-03 4.8137944571e-03 -6.4033220515e-21 6.2454082770e-05 -4.7756480360e-04 1.9697927506e-16
8.457237           9.5402330221e-03 4.2504421171e-03 1.0737032248e-16 9.4877687077e-03 4.7206108918e-03 -7.0263232926e-21 5.2464314407e-05 -4.7016877469e-04 1.0737734880e-16
8.578572           9.6386424908e-03 4.1535016405e-03 4.1455511838e-18 9.5957715706e-03 4.6162213476e-03 -7.7296139593e-21 4.2870920206e-05 -4.6271970709e-04 4.1532807978e-18
8.699745           9.6866096688e-03 4.0635975994e-03 -1.2860355271e-16 9.6529794701e-03 4.5188018482e-03 -8.3300391465e-21 3.3630198673e-05 -4.5520424877e-04 -1.2859522267e-16
8.820746           9.7995600657e-03 3.9762963049e-03 -2.8519580592e-16 9.7748280888e-03 4.4239512269e-03 -9.0430844904e-21 2.4731976959e-05 -4.4765492205e-04 -2.8518676284e-16
8.941559           9.8082128743e-03 3.8878560367e-03 -4.7741586161e-16 9.7919829355e-03 4.3279198432e-03 -9.6964109045e-21 1.6229938724e-05 -4.4006380646e-04 -4.7740616520e-16
9.062146           9.8974124455e-03 3.7876154323e-03 -7.1523306713e-16 9.8893217899e-03 4.2200580266e-03 -1.0466979394e-20 8.0906555888e-06 -4.3244259437e-04 -7.1522260015e-16
9.182440           9.9105430844e-03 3.6935060180e-03 -9.5948675274e-16 9.9101890443e-03 4.1182831039e-03 -1.1087145346e-20 3.5404007923e-07 -4.2477708586e-04 -9.5947566560e-16
9.302525           9.9784733893e-03 3.6128071208e-03 -1.2302357283e-15 9.9854700343e-03 4.0299452584e-03 -1.1756947571e-20 -6.9966449438e-06 -4.1713813758e-04 -1.2302239714e-15
9.422332           9.9772395595e-03 3.5327627616e-03 -1.5211105070e-15 9.9912401572e-03 3.9423119557e-03 -1.2210595495e-20 -1.4000597761e-05 -4.0954919409e-04 -1.5210982964e-15
9.541931           1.0014539637e-02 3.4487090454e-03 -1.8235783666e-15 1.0035156966e-02 3.8506741508e-03 -1.2604533372e-20 -2.0617329194e-05 -4.0196510543e-04 -1.8235657620e-15
9.661208           1.0002730523e-02 3.3761922676e-03 -2.1405701035e-15 1.0029570593e-02 3.7706374103e-03 -1.2505015923e-20 -2.6840069889e-05 -3.9444514273e-04 -2.1405575984e-15
9.780249           1.0031498879e-02 3.3253579370e-03 -2.5107533148e-15 1.0064185975e-02 3.7123517178e-03 -1.2102719583e-20 -3.2687095397e-05 -3.8699378077e-04 -2.5107412121e-15
9.898966           1.0011797649e-02 3.2145030642e-03 -2.9327826438e-15 1.0049927652e-02 3.5940863641e-03 -1.1286666446e-20 -3.8130002722e-05 -3.7958329986e-04 -2.9327713571e-15
10.017387          1.0011011485e-02 3.1912666398e-03 -3.3487266296e-15 1.0054134540e-02 3.5634462760e-03 -9.7193144506e-21 -4.3123055085e-05 -3.7217963619e-04 -3.3487169103e-15
10.135586          9.9944244447e-03 3.1002303780e-03 -3.8205637301e-15 1.0042239978e-02 3.4652206436e-03 -7.7488109787e-21 -4.7815533177e-05 -3.6499026556e-04 -3.8205559813e-15
10.253360          9.9999383051e-03 3.0958299903e-03 -4.4121551543e-15 1.0052060703e-02 3.4536966232e-03 -4.8473091185e-21 -5.2122398355e-05 -3.5786663284e-04 -4.4121503070e-15
10.370920          9.9712011936e-03 3.0348527898e-03 -4.9413219320e-15 1.0027191149e-02 3.3855640170e-03 -1.9398836575e-21 -5.5989955455e-05 -3.5071122727e-04 -4.9413199921e-15
10.488108          9.9470238474e-03 2.9842993112e-03 -5.4627213347e-15 1.0006658306e-02 3.3281606764e-03 1.3115896770e-21 -5.9634458583e-05 -3.4386136519e-04 -5.4627226463e-15
10.604862          9.9364441202e-03 2.9848202736e-03 -5.9884728473e-15 9.9993659612e-03 3.3219095857e-03 4.5954285375e-21 -6.2921840976e-05 -3.3708931200e-04 -5.9884774427e-15
10.721491          9.9105364360e-03 2.9374284616e-03 -6.4162186267e-15 9.9764466524e-03 3.2678238262e-03 7.0208023722e-21 -6.5910216474e-05 -3.3039536457e-04 -6.4162256476e-15
10.837634          9.8678545136e-03 2.9186069979e-03 -6.8088465805e-15 9.9366082095e-03 3.2426069859e-03 8.9863780328e-21 -6.8753695827e-05 -3.2399998795e-04 -6.8088555668e-15
10.953362          9.8414700918e-03 2.9354541270e-03 -7.1984916720e-15 9.9127403038e-03 3.2530442289e-03 1.0155625353e-20 -7.1270211964e-05 -3.1759010183e-04 -7.1985018276e-15
11.069089          9.8355371306e-03 2.9120268760e-03 -7.4275009032e-15 9.9091352760e-03 3.2232651527e-03 1.0572565913e-20 -7.3598145323e-05 -3.1123827664e-04 -7.4275114758e-15
11.184209          9.7864757245e-03 2.9300171887e-03 -7.5133186648e-15 9.8623125144e-03 3.2351566113e-03 9.7682987075e-21 -7.5836789958e-05 -3.0513942264e-04 -7.5133284331e-15
11.298962          9.7867983456e-03 2.9327561814e-03 -7.4168954547e-15 9.8645917240e-03 3.2318105918e-03 8.5031596489e-21 -7.7793378441e-05 -2.9905441039e-04 -7.4169039578e-15
11.413841          9.7382267918e-03 2.9284585233e-03 -7.0279250197e-15 9.8178052408e-03 3.2214915234e-03 7.1929895725e-21 -7.9578449040e-05 -2.9303300004e-04 -7.0279322127e-15
11.527899          9.7233844436e-03 2.9689168780e-03 -6.3949569510e-15 9.8047171753e-03 3.2561932754e-03 4.9851674787e-21 -8.1332731724e-05 -2.8727639739e-04 -6.3949619362e-15
11.641677          9.6946154985e-03 2.9740738848e-03 -5.3072752573e-15 9.7774224306e-03 3.2555685891e-03 3.0144245384e-21 -8.2806932088e-05 -2.8149470433e-04 -5.3072782718e-15
11.755571          9.7172676502e-03 3.0118197246e-03 -3.6294358570e-15 9.8013953337e-03 3.2876182778e-03 8.2638494926e-22 -8.4127683430e-05 -2.7579855313e-04 -3.6294366834e-15
11.868636          9.6772211151e-03 3.0610468318e-03 -1.2992889544e-15 9.7626468106e-03 3.3314005233e-03 -1.1394464993e-21 -8.5425695489e-05 -2.7035369158e-04 -1.2992878150e-15
11.981600          9.6359551845e-03 3.0620078675e-03 2.0772537492e-15 9.7224086057e-03 3.3269099610e-03 -3.7947117074e-21 -8.6453421190e-05 -2.6490209349e-04 2.0772575439e-15
12.094687          9.6870207874e-03 3.1651066954e-03 6.2053043449e-15 9.7743702396e-03 3.4246366818e-03 -6.3948528262e-21 -8.7349452223e-05 -2.5952998642e-04 6.2053107397e-15
12.207017          9.6857790495e-03 3.1719747517e-03 1.1428571125e-14 9.7739056174e-03 3.4262107357e-03 -9.4135071854e-21 -8.8126567896e-05 -2.5423598406e-04 1.1428580538e-14
12.319472          9.6291469881e-03 3.2160302366e-03 1.8558979514e-14 9.7178019941e-03 3.4649807079e-03 -1.2736220184e-20 -8.8655005995e-05 -2.4895047131e-04 1.8558992250e-14
12.432028          9.6930745511e-03 3.2790045247e-03 2.7290436008e-14 9.7821601140e-03 3.5227296027e-03 -1.6109378928e-20 -8.9085562918e-05 -2.4372507799e-04 2.7290452118e-14
12.544019          9.6422230184e-03 3.3483855940e-03 3.7440499018e-14 9.7316205087e-03 3.5869302474e-03 -1.8565396728e-20 -8.9397490267e-05 -2.3854465341e-04 3.7440517583e-14
12.656389          9.7062513868e-03 3.3655060014e-03 4.9912118611e-14 9.7956281232e-03 3.5988721839e-03 -2.0675266047e-20 -8.9376736406e-05 -2.3336618246e-04 4.9912139286e-14
12.768632          9.7030286976e-03 3.4280872940e-03 6.4587788934e-14 9.7922674036e-03 3.6562601020e-03 -2.1755699229e-20 -8.9238705976e-05 -2.2817280792e-04 6.4587810689e-14
12.880579          9.7407690871e-03 3.4644439216e-03 8.2041726281e-14 9.8298428790e-03 3.6875278574e-03 -2.1268533704e-20 -8.9073791863e-05 -2.2308393580e-04 8.2041747550e-14
12.993236          9.7505224465e-03 3.5930851235e-03 1.0315562880e-13 9.8390370369e-03 3.8110664177e-03 -1.9834488151e-20 -8.8514590321e-05 -2.1798129428e-04 1.0315564864e-13
13.105475          9.7382831135e-03 3.5591271735e-03 1.2726400273e-13 9.8261146407e-03 3.7719243419e-03 -1.7553480008e-20 -8.7831527207e-05 -2.1279716843e-04 1.2726402028e-13
13.217770          9.8757898039e-03 3.6781921819e-03 1.5488776395e-13 9.9630432420e-03 3.8860126496e-03 -1.4738301510e-20 -8.7253438103e-05 -2.0782046768e-04 1.5488777869e-13
13.330935          9.8258437899e-03 3.7030576131e-03 1.8725107072e-13 9.9119872679e-03 3.9058072715e-03 -1.1724745658e-20 -8.6143477961e-05 -2.0274965841e-04 1.8725108245e-13
13.443582          9.8568868175e-03 3.7542134902e-03 2.2322321280e-13 9.9418840873e-03 3.9518644229e-03 -8.4957519254e-21 -8.4997269804e-05 -1.9765093270e-04 2.2322322129e-13
13.556720          9.9696784431e-03 3.7955913039e-03 2.6410038383e-13 1.0053670599e-02 3.9883536515e-03 -5.5910411578e-21 -8.3992156342e-05 -1.9276234767e-04 2.6410038942e-13
13.670211          9.9165954296e-03 3.8038072187e-03 3.1163071404e-13 9.9989256450e-03 3.9916013445e-03 -2.4355358419e-21 -8.2330215382e-05 -1.8779412583e-04 3.1163071648e-13
13.783673          1.0036682283e-02 3.9349762235e-03 3.6352664276e-13 1.0117427188e-02 4.1177783347e-03 4.5217531363e-22 -8.0744904983e-05 -1.8280211126e-04 3.6352664230e-13
13.897724          1.0034140659e-02 3.9242379187e-03 4.2234260275e-13 1.0113385859e-02 4.1021880736e-03 3.3926322683e-21 -7.9245199241e-05 -1.7795015492e-04 4.2234259935e-13
14.011413          1.0085694721e-02 3.9832513334e-03 4.8828244185e-13 1.0162859649e-02 4.1563706308e-03 5.8037603787e-21 -7.7164927218e-05 -1.7311929738e-04 4.8828243605e-13
14.124877          1.0172943761e-02 4.0579296922e-03 5.5873449445e-13 1.0248159738e-02 4.2261739637e-03 7.5672872123e-21 -7.5215976290e-05 -1.6824427155e-04 5.5873448688e-13
14.238230          1.0174056285e-02 4.0619266767e-03 6.4047795629e-13 1.0247250903e-02 4.2254150044e-03 9.3073289923e-21 -7.3194618253e-05 -1.6348832773e-04 6.4047794698e-13
14.351485          1.0252306108e-02 4.1748829235e-03 7.3749901243e-13 1.0323146828e-02 4.3338333974e-03 1.0484169524e-20 -7.0840719422e-05 -1.5895047392e-04 7.3749900195e-13
14.464301          1.0293994061e-02 4.1048665778e-03 8.5117641226e-13 1.0362629918e-02 4.2593508911e-03 1.0662742122e-20 -6.8635857601e-05 -1.5448431333e-04 8.5117640159e-13
14.576796          1.0337630707e-02 4.2435549786e-03 9.8066437611e-13 1.0403846134e-02 4.3936251801e-03 1.1208815289e-20 -6.6215426732e-05 -1.5007020150e-04 9.8066436490e-13
14.689077          1.0408538881e-02 4.2455509340e-03 1.1322219672e-12 1.0472124719e-02 4.3913183007e-03 1.1070963468e-20 -6.3585838060e-05 -1.4576736671e-04 1.1322219562e-12
14.801247          1.0443845916e-02 4.2609914250e-03 1.3123351941e-12 1.0504808623e-02 4.4025240509e-03 1.1070788912e-20 -6.0962706568e-05 -1.4153262591e-04 1.3123351830e-12
14.913219          1.0470501487e-02 4.3515860631e-03 1.5231996289e-12 1.0528770998e-02 4.4890624691e-03 1.0866959014e-20 -5.8269511056e-05 -1.3747640609e-04 1.5231996181e-12
15.024739          1.0573237035e-02 4.3261188285e-03 1.7636713649e-12 1.0628608200e-02 4.4596342920e-03 1.0653522764e-20 -5.5371164885e-05 -1.3351546356e-04 1.7636713542e-12
15.135867          1.0561179398e-02 4.4034939704e-03 2.0280417855e-12 1.0613650303e-02 4.5330819314e-03 1.0805201831e-20 -5.2470905448e-05 -1.2958796099e-04 2.0280417747e-12
15.246762          1.0741047250e-02 4.4666169742e-03 2.3228292801e-12 1.0790500664e-02 4.5923528223e-03 1.0536254727e-20 -4.9453413506e-05 -1.2573584817e-04 2.3228292695e-12
15.357664          1.0620404176e-02 4.4643476681e-03 2.6515711891e-12 1.0666542158e-02 4.5863455137e-03 1.1420206323e-20 -4.6137981192e-05 -1.2199784555e-04 2.6515711777e-12
15.468287          1.0806566579e-02 4.5348119443e-03 3.0207029280e-12 1.0849562203e-02 4.6532115726e-03 1.1895949500e-20 -4.2995623841e-05 -1.1839962838e-04 3.0207029161e-12
15.578420          1.0829210161e-02 4.6288706595e-03 3.4319801423e-12 1.0868868133e-02 4.7437137493e-03 1.2425650076e-20 -3.9657972359e-05 -1.1484308976e-04 3.4319801298e-12
15.688248          1.0907302828e-02 4.6081204726e-03 3.8659981353e-12 1.0943553656e-02 4.7194693545e-03 1.3523965209e-20 -3.6250828409e-05 -1.1134888184e-04 3.8659981218e-12
15.798088          1.0870352320e-02 4.6266729142e-03 4.3228366030e-12 1.0903125680e-02 4.7347373944e-03 1.4250841505e-20 -3.2773360095e-05 -1.0806448019e-04 4.3228365888e-12
15.908141          1.1107159579e-02 4.6744338064e-03 4.8162580464e-12 1.1136260057e-02 4.7792786841e-03 1.5452064235e-20 -2.9100478533e-05 -1.0484487772e-04 4.8162580309e-12
16.017745          1.0983800485e-02 4.8032688402e-03 5.3433704214e-12 1.1009274887e-02 4.9049620608e-03 1.6467630906e-20 -2.5474402062e-05 -1.0169322056e-04 5.3433704049e-12
16.127036          1.1224034112e-02 4.7698824954e-03 5.8850781795e-12 1.1245746873e-02 4.8685532638e-03 1.7505650467e-20 -2.1712761055e-05 -9.8670768377e-05 5.8850781620e-12
16.236346          1.1123822292e-02 4.7675125673e-03 6.4464835140e-12 1.1141722318e-02 4.8633461682e-03 1.8334495354e-20 -1.7900025918e-05 -9.5833600861e-05 6.4464834956e-12
16.345928          1.1304906235e-02 4.8579401319e-03 7.0251310337e-12 1.1318991106e-02 4.9511128747e-03 1.9139852181e-20 -1.4084871146e-05 -9.3172742766e-05 7.0251310146e-12
16.455596          1.1289245949e-02 4.8264561189e-03 7.6414837227e-12 1.1299419982e-02 4.9170255926e-03 1.9574197937e-20 -1.0174033066e-05 -9.0569473652e-05 7.6414837032e-12
16.565013          1.1395515854e-02 4.8604387614e-03 8.2982096340e-12 1.1401800227e-02 4.9485965088e-03 2.0248554170e-20 -6.2843725351e-06 -8.8157747412e-05 8.2982096137e-12
16.674463          1.1493427084e-02 4.8784016316e-03 8.9487859449e-12 1.1495821886e-02 4.9643002304e-03 2.0645222922e-20 -2.3948016723e-06 -8.5898598811e-05 8.9487859243e-12
16.784271          1.1435933640e-02 4.8957394077e-03 9.6267904734e-12 1.1434337074e-02 4.9794892165e-03 2.1293948240e-20 1.5965659329e-06 -8.3749808795e-05 9.6267904521e-12
16.894548          1.1586598653e-02 4.9125286460e-03 1.0318547814e-11 1.1581045179e-02 4.9942730753e-03 2.1982369928e-20 5.5534735790e-06 -8.1744429321e-05 1.0318547792e-11
17.004531          1.1613122476e-02 4.9373056356e-03 1.0973726129e-11 1.1603625278e-02 5.0171802451e-03 2.2691541889e-20 9.4971976905e-06 -7.9874609462e-05 1.0973726106e-11
17.114088          1.1603689622e-02 4.9951992675e-03 1.1629912816e-11 1.1590303379e-02 5.0732935954e-03 2.3879057920e-20 1.3386242303e-05 -7.8094327861e-05 1.1629912792e-11
17.223212          1.1761112984e-02 4.9806944367e-03 1.2296331843e-11 1.1744028489e-02 5.0571824266e-03 2.4780948680e-20 1.7084495451e-05 -7.6487989950e-05 1.2296331818e-11
17.331903          1.1734225262e-02 5.0155968594e-03 1.2996000907e-11 1.1713489755e-02 5.0906741576e-03 2.5788528548e-20 2.0735506554e-05 -7.5077298282e-05 1.2996000882e-11
17.440154          1.1846061994e-02 5.0186050509e-03 1.3729881460e-11 1.1821782785e-02 5.0922314841e-03 2.6467228491e-20 2.4279208727e-05 -7.3626433198e-05 1.3729881434e-11
17.547941          1.1824703350e-02 5.0845902951e-03 1.4438226900e-11 1.1796896749e-02 5.1568429497e-03 2.6776769200e-20 2.7806601059e-05 -7.2252654517e-05 1.4438226873e-11
17.655165          1.1860310407e-02 5.1311281627e-03 1.5137750813e-11 1.1829171373e-02 5.2022057899e-03 2.6742366115e-20 3.1139034458e-05 -7.1077627137e-05 1.5137750786e-11
17.761808          1.1957548032e-02 5.1617781083e-03 1.5862763232e-11 1.1923257055e-02 5.2317555230e-03 2.6250679755e-20 3.4290977039e-05 -6.9977414749e-05 1.5862763206e-11
17.867862          1.1899553712e-02 5.1693297741e-03 1.6584222212e-11 1.1862024211e-02 5.2382511943e-03 2.5972857817e-20 3.7529500391e-05 -6.8921420109e-05 1.6584222186e-11
17.973324          1.1963910664e-02 5.2721684254e-03 1.7316563029e-11 1.1923239495e-02 5.3401091379e-03 2.5760841129e-20 4.0671169264e-05 -6.7940712476e-05 1.7316563003e-11
18.078175          1.1962787266e-02 5.2864811973e-03 1.8153879476e-11 1.1919131362e-02 5.3535676761e-03 2.6031885451e-20 4.3655904496e-05 -6.7086478763e-05 1.8153879450e-11
18.182405          1.1985902255e-02 5.3412196779e-03 1.9084332063e-11 1.1939303302e-02 5.4075352238e-03 2.6529569227e-20 4.6598953793e-05 -6.6315545848e-05 1.9084332037e-11
18.286005          1.2018059460e-02 5.4407882242e-03 2.0097079678e-11 1.1968546293e-02 5.5062884195e-03 2.7988336646e-20 4.9513167155e-05 -6.5500195240e-05 2.0097079650e-11
18.388967          1.2010222085e-02 5.4408564404e-03 2.1207841433e-11 1.1957889670e-02 5.5055935051e-03 2.9692030139e-20 5.2332415134e-05 -6.4737064693e-05 2.1207841403e-11
18.491286          1.2048804755e-02 5.5641187347e-03 2.2292439848e-11 1.1993813230e-02 5.6281681642e-03 3.1960443481e-20 5.4991525397e-05 -6.4049429522e-05 2.2292439816e-11
18.592962          1.2047849478e-02 5.5833127169e-03 2.3543567749e-11 1.1990176127e-02 5.6466054497e-03 3.4407998929e-20 5.7673351098e-05 -6.3292732825e-05 2.3543567715e-11
18.693992          1.2078334780e-02 5.6649129056e-03 2.5033731427e-11 1.2017947974e-02 5.7274042263e-03 3.6670778737e-20 6.0386806481e-05 -6.2491320662e-05 2.5033731390e-11
18.794410          1.2114969249e-02 5.7471392533e-03 2.6644341893e-11 1.2051988075e-02 5.8088460274e-03 3.9004444788e-20 6.2981174149e-05 -6.1706774050e-05 2.6644341854e-11
18.894234          1.2059356466e-02 5.8381216036e-03 2.8545871983e-11 1.1993780774e-02 5.8990625361e-03 4.1250525544e-20 6.5575691641e-05 -6.0940932515e-05 2.8545871942e-11
18.993491          1.2061133242e-02 5.8947767841e-03 3.0707615716e-11 1.1992927388e-02 5.9548751896e-03 4.3118294130e-20 6.8205854143e-05 -6.0098405500e-05 3.0707615672e-11
19.092188          1.1952386446e-02 6.0412153782e-03 3.3164786343e-11 1.1881610677e-02 6.1003437500e-03 4.4821865610e-20 7.0775769089e-05 -5.9128371746e-05 3.3164786298e-11
19.190121          1.2040589715e-02 6.1414198547e-03 3.6010779185e-11 1.1967262392e-02 6.1995093198e-03 4.6214824052e-20 7.3327322360e-05 -5.8089465113e-05 3.6010779139e-11
19.287303          1.2000612876e-02 6.2590325476e-03 3.9402739391e-11 1.1924641418e-02 6.3159570182e-03 4.7345158639e-20 7.5971457718e-05 -5.6924470580e-05 3.9402739343e-11
19.383781          1.1982956755e-02 6.3319167763e-03 4.3523624555e-11 1.1904281273e-02 6.3876246189e-03 4.8093419422e-20 7.8675481425e-05 -5.5707842603e-05 4.3523624507e-11
19.479611          1.2052915522e-02 6.5038826991e-03 4.8278429994e-11 1.1971565831e-02 6.5583413116e-03 4.8262630571e-20 8.1349690941e-05 -5.4458612524e-05 4.8278429945e-11
19.574870          1.2035022786e-02 6.6264378106e-03 5.4169601204e-11 1.1950910636e-02 6.6796478601e-03 4.8112538056e-20 8.4112150060e-05 -5.3210049492e-05 5.4169601156e-11
19.669629          1.2018682080e-02 6.7126738037e-03 6.0831482513e-11 1.1931690745e-02 6.7646937535e-03 4.7677574342e-20 8.6991335182e-05 -5.2019949742e-05 6.0831482466e-11
19.763952          1.2059281736e-02 6.8715681995e-03 6.8490596345e-11 1.1969421717e-02 6.9223899855e-03 4.6694508937e-20 8.9860018882e-05 -5.0821785991e-05 6.8490596298e-11