# Force           
# CofR            : (0.0000000000e+00 0.0000000000e+00 0.0000000000e+00)
#
# Time            	total_x total_y total_z	pressure_x pressure_y pressure_z	viscous_x viscous_y viscous_z
0.120240           1.9417815266e+00 -1.6601807865e-04 -8.7773754358e-17 1.9369813124e+00 -3.5451709513e-05 -3.9433206308e-23 4.8002142804e-03 -1.3056636914e-04 -8.7773714925e-17
0.255607           -6.4059238273e-02 1.2013471816e-05 3.3500153613e-17 -6.9306385241e-02 2.4446061926e-04 -6.1835228725e-21 5.2471469684e-03 -2.3244714745e-04 3.3506337136e-17
0.404450           -4.7777454836e-01 8.5062535823e-04 -1.8590964089e-14 -4.8237019457e-01 1.0169845530e-03 -7.2627365442e-21 4.5956462153e-03 -1.6635919480e-04 -1.8590956826e-14
0.544824           -5.3785828169e-02 1.3819451594e-03 -3.6055930423e-14 -5.7607850708e-02 1.4991743575e-03 -1.7118610564e-21 3.8220225395e-03 -1.1722919806e-04 -3.6055928711e-14
0.680137           9.1524418992e-02 7.8340991129e-04 -2.9369514871e-14 8.8025622153e-02 8.7566712993e-04 8.9185110972e-22 3.4987968387e-03 -9.2257218647e-05 -2.9369515763e-14
0.814132           -3.9941950517e-02 1.8826184446e-03 -2.6818868209e-14 -4.3243550810e-02 1.9585192447e-03 -2.3549808716e-21 3.3016002925e-03 -7.5900800145e-05 -2.6818865854e-14
0.948401           -8.3854055226e-02 2.2214227376e-03 -2.9099003981e-14 -8.6870502502e-02 2.2870894641e-03 -6.5501204582e-21 3.0164472754e-03 -6.5666726497e-05 -2.9098997431e-14
1.085409           -6.9192765072e-03 2.0679050629e-03 -2.6626765998e-14 -9.6920643428e-03 2.1303831773e-03 -1.7577661047e-21 2.7727878356e-03 -6.2478114393e-05 -2.6626764241e-14
1.225120           1.1886871868e-02 2.5355174009e-03 -2.4954481505e-14 9.2840923392e-03 2.6015141814e-03 2.0972711172e-21 2.6027795289e-03 -6.5996780453e-05 -2.4954483602e-14
1.367070           -8.0770486958e-03 2.3811153181e-03 -2.3835646424e-14 -1.0528255300e-02 2.4539380794e-03 -2.9149561205e-21 2.4512066042e-03 -7.2822761277e-05 -2.3835643509e-14
1.511356           -1.0111828827e-02 2.3766168576e-03 -2.2865058977e-14 -1.2413517732e-02 2.4588679788e-03 -4.1568373178e-21 2.3016889041e-03 -8.2251121140e-05 -2.2865054820e-14
1.658329           -3.1876671376e-03 2.5016556984e-03 -2.1617280249e-14 -5.3536492537e-03 2.5963790720e-03 -2.4915141804e-21 2.1659821162e-03 -9.4723373655e-05 -2.1617277758e-14
1.807964           -2.0344867094e-03 2.5831166628e-03 -2.0672651699e-14 -4.0805066726e-03 2.6924957319e-03 -2.6012271412e-21 2.0460199632e-03 -1.0937906905e-04 -2.0672649098e-14
1.960534           -1.4382498695e-03 2.5382427843e-03 -1.9235880113e-14 -3.3748981705e-03 2.6634772217e-03 -2.7116016756e-21 1.9366483010e-03 -1.2523443738e-04 -1.9235877401e-14
2.116238           -6.4455566922e-04 2.5299851958e-03 -1.7743829831e-14 -2.4795184313e-03 2.6719475454e-03 -2.8234628365e-21 1.8349627620e-03 -1.4196234955e-04 -1.7743827008e-14
2.275037           -4.0058982439e-05 2.5449469357e-03 -1.6344631000e-14 -1.7806124970e-03 2.7042646845e-03 -2.7930737823e-21 1.7405535145e-03 -1.5931774875e-04 -1.6344628207e-14
2.437218           5.1114396144e-04 2.5398828076e-03 -1.5051136127e-14 -1.1419734442e-03 2.7169701728e-03 -2.7189577352e-21 1.6531174057e-03 -1.7708736520e-04 -1.5051133408e-14
2.602775           9.8727630411e-04 2.5254774497e-03 -1.3781088147e-14 -5.8419659518e-04 2.7204297537e-03 -2.5508406527e-21 1.5714728993e-03 -1.9495230396e-04 -1.3781085596e-14
2.771763           1.3977681088e-03 2.5485348094e-03 -1.2567401533e-14 -9.7124663714e-05 2.7614052845e-03 -2.3696669346e-21 1.4948927726e-03 -2.1287047508e-04 -1.2567399163e-14
2.944118           1.7504720783e-03 2.5288512638e-03 -1.1416423763e-14 3.2747162434e-04 2.7594744906e-03 -2.1206151524e-21 1.4230004540e-03 -2.3062322674e-04 -1.1416421642e-14
3.119479           2.0719922627e-03 2.5383786317e-03 -1.0327090205e-14 7.1665179406e-04 2.7863927422e-03 -1.8746488476e-21 1.3553404686e-03 -2.4801411050e-04 -1.0327088330e-14
3.297274           2.3337961237e-03 2.5128706457e-03 -9.3036359906e-15 1.0421847004e-03 2.7776801602e-03 -1.5644138664e-21 1.2916114233e-03 -2.6480951449e-04 -9.3036344262e-15
3.477062           2.5765032018e-03 2.5079271073e-03 -8.3496157217e-15 1.3449244454e-03 2.7887439094e-03 -1.2743547036e-21 1.2315787565e-03 -2.8081680208e-04 -8.3496144474e-15
3.658398           2.7863727596e-03 2.4941149602e-03 -7.4656025344e-15 1.6113205670e-03 2.7900215737e-03 -9.9573460084e-22 1.1750521926e-03 -2.9590661358e-04 -7.4656015386e-15
3.840963           2.9752300888e-03 2.4913404246e-03 -6.6504368889e-15 1.8534129565e-03 2.8013121773e-03 -7.7142139996e-22 1.1218171323e-03 -3.0997175266e-04 -6.6504361175e-15
4.022962           3.1354328444e-03 2.4829714406e-03 -5.9100089012e-15 2.0634541169e-03 2.8059619713e-03 -6.3474866270e-22 1.0719787275e-03 -3.2299053068e-04 -5.9100082664e-15
4.204967           3.2938085123e-03 2.4805345714e-03 -5.2337799961e-15 2.2687679470e-03 2.8154730630e-03 -6.4083043400e-22 1.0250405653e-03 -3.3493849166e-04 -5.2337793553e-15
4.387639           3.4403863988e-03 2.4804926126e-03 -4.6108359954e-15 2.4597171340e-03 2.8261866126e-03 -7.3063739980e-22 9.8066926477e-04 -3.4569399991e-04 -4.6108352648e-15
4.570149           3.5825727573e-03 2.4886419998e-03 -4.0359333839e-15 2.6437655742e-03 2.8439717616e-03 -9.2320710022e-22 9.3880718306e-04 -3.5532976181e-04 -4.0359324607e-15
4.753291           3.7141021651e-03 2.4928615662e-03 -3.4987444129e-15 2.8150470206e-03 2.8567778520e-03 -1.1803769687e-21 8.9905514454e-04 -3.6391628581e-04 -3.4987432325e-15
4.936981           3.8304125908e-03 2.5000478108e-03 -2.9948289901e-15 2.9690191650e-03 2.8714185885e-03 -1.4724720916e-21 8.6139342575e-04 -3.7137077773e-04 -2.9948275176e-15
5.121254           3.9467009060e-03 2.5100962869e-03 -2.5215820436e-15 3.1210395561e-03 2.8878875586e-03 -1.7649459439e-21 8.2566134996e-04 -3.7779127170e-04 -2.5215802787e-15
5.306473           4.0559107960e-03 2.5225429708e-03 -2.0748505907e-15 3.2642443578e-03 2.9057943100e-03 -2.0170313827e-21 7.9166643815e-04 -3.8325133921e-04 -2.0748485737e-15
5.491628           4.1634545314e-03 2.5406287012e-03 -1.6517036470e-15 3.4039724437e-03 2.9284401365e-03 -2.2749815256e-21 7.5948208771e-04 -3.8781143529e-04 -1.6517013720e-15
5.676699           4.2595763794e-03 2.5618782411e-03 -1.2432924030e-15 3.5306618593e-03 2.9534762854e-03 -2.5367916412e-21 7.2891452009e-04 -3.9159804433e-04 -1.2432898662e-15
5.861674           4.3631439579e-03 2.5811592381e-03 -8.4297490832e-16 3.6632397403e-03 2.9757218182e-03 -2.7620775278e-21 6.9990421755e-04 -3.9456258004e-04 -8.4297214624e-16
6.046544           4.4616675340e-03 2.6104222731e-03 -4.4964712673e-16 3.7893229545e-03 3.0072344813e-03 -2.9907132751e-21 6.7234457952e-04 -3.9681220819e-04 -4.4964413602e-16
6.231308           4.5662715397e-03 2.6295276873e-03 -5.9358728174e-17 3.9201905453e-03 3.0279330586e-03 -3.1753105464e-21 6.4608099438e-04 -3.9840537132e-04 -5.9355552864e-17
6.415966           4.6593218721e-03 2.6578984766e-03 3.2839119029e-16 4.0381719826e-03 3.0572691223e-03 -3.3358170667e-21 6.2114988951e-04 -3.9937064575e-04 3.2839452611e-16
6.600521           4.7623362807e-03 2.6815679972e-03 7.1042126952e-16 4.1648582694e-03 3.0813036258e-03 -3.4391056285e-21 5.9747801131e-04 -3.9973562865e-04 7.1042470863e-16
6.784977           4.8699086066e-03 2.7170068119e-03 1.0855927130e-15 4.2950390246e-03 3.1166379447e-03 -3.4423902102e-21 5.7486958201e-04 -3.9963113280e-04 1.0855961554e-15
6.969336           4.9661776038e-03 2.7349052212e-03 1.4491512790e-15 4.4128164415e-03 3.1339447641e-03 -3.3865364525e-21 5.5336116222e-04 -3.9903954287e-04 1.4491546655e-15
7.153605           5.0730215667e-03 2.7657276008e-03 1.8004374730e-15 4.5400843893e-03 3.1637273015e-03 -3.1701087495e-21 5.3293717743e-04 -3.9799970064e-04 1.8004406431e-15
7.337788           5.1812841972e-03 2.7886620187e-03 2.1355885352e-15 4.6677834745e-03 3.1852343527e-03 -2.9142954688e-21 5.1350072269e-04 -3.9657233402e-04 2.1355914495e-15
7.521889           5.2895769451e-03 2.8155993733e-03 2.4466228528e-15 4.7945745316e-03 3.2103858212e-03 -2.5028812729e-21 4.9500241343e-04 -3.9478644785e-04 2.4466253557e-15
7.704442           5.4026470149e-03 2.8342267743e-03 2.7260630852e-15 4.9251574966e-03 3.2269676508e-03 -2.0535518153e-21 4.7748951830e-04 -3.9274087650e-04 2.7260651388e-15
7.885213           5.5113844489e-03 2.8538272267e-03 2.9723230308e-15 5.0504494254e-03 3.2442721830e-03 -1.5510537884e-21 4.6093502346e-04 -3.9044495627e-04 2.9723245818e-15
8.064400           5.6168524050e-03 2.8702611182e-03 3.1828691960e-15 5.1715466815e-03 3.2581972952e-03 -1.0251397399e-21 4.4530572354e-04 -3.8793617697e-04 3.1828702212e-15
8.242267           5.7240706597e-03 2.8784552910e-03 3.3602577042e-15 5.2935069299e-03 3.2636293797e-03 -5.0485868774e-22 4.3056372978e-04 -3.8517408864e-04 3.3602582091e-15
8.418735           5.8396656362e-03 2.8919853630e-03 3.5079682189e-15 5.4230057761e-03 3.2742726529e-03 4.2942369680e-24 4.1665986010e-04 -3.8228728999e-04 3.5079682146e-15
8.593294           5.9500169774e-03 2.8982353125e-03 3.6337469509e-15 5.5464128885e-03 3.2776005717e-03 4.9678450660e-22 4.0360408892e-04 -3.7936525922e-04 3.6337464541e-15
8.766246           6.0476290219e-03 2.8982476487e-03 3.7394329943e-15 5.6563074287e-03 3.2746092248e-03 9.6139800969e-22 3.9132159316e-04 -3.7636157614e-04 3.7394320329e-15
8.937999           6.1619026427e-03 2.8973434103e-03 3.8265872412e-15 5.7821286013e-03 3.2706482981e-03 1.4465793724e-21 3.7977404142e-04 -3.7330488778e-04 3.8265857946e-15
9.108497           6.2529131885e-03 2.8986681443e-03 3.8944079146e-15 5.8839423879e-03 3.2688857921e-03 1.8892466886e-21 3.6897080056e-04 -3.7021764773e-04 3.8944060254e-15
9.277088           6.3671185720e-03 2.8829200661e-03 3.9441614967e-15 6.0082457680e-03 3.2500284611e-03 2.3525141124e-21 3.5887280392e-04 -3.6710839500e-04 3.9441591442e-15
9.444115           6.4454189636e-03 2.8793698149e-03 3.9680687146e-15 6.0960016797e-03 3.2434513287e-03 2.7612422624e-21 3.4941728394e-04 -3.6408151375e-04 3.9680659534e-15
9.610015           6.5487376449e-03 2.8610096070e-03 3.9586059945e-15 6.2081366074e-03 3.2220356291e-03 3.1513594840e-21 3.4060103746e-04 -3.6102602205e-04 3.9586028431e-15
9.775268           6.6425824274e-03 2.8481048895e-03 3.9236575744e-15 6.3101917371e-03 3.2059776837e-03 3.5034734748e-21 3.3239069033e-04 -3.5787279418e-04 3.9236540709e-15
9.938604           6.7304286165e-03 2.8436073992e-03 3.8588011852e-15 6.4056824990e-03 3.1985492399e-03 3.7931859560e-21 3.2474611757e-04 -3.5494184062e-04 3.8587973920e-15
10.100467          6.8188080519e-03 2.8144642978e-03 3.7579280287e-15 6.5011585566e-03 3.1665587194e-03 4.0217688539e-21 3.1764949528e-04 -3.5209442161e-04 3.7579240070e-15
10.261302          6.8961712033e-03 2.8052081452e-03 3.6126095712e-15 6.5850821173e-03 3.1543948933e-03 4.1385168752e-21 3.1108908601e-04 -3.4918674817e-04 3.6126054326e-15
10.421456          6.9745610419e-03 2.7826483524e-03 3.4083230002e-15 6.6695590579e-03 3.1290854515e-03 4.2704956681e-21 3.0500198404e-04 -3.4643709904e-04 3.4083187297e-15
10.580575          7.0402582040e-03 2.7808683611e-03 3.1501169794e-15 6.7408821312e-03 3.1247166807e-03 4.3176130208e-21 2.9937607278e-04 -3.4384831963e-04 3.1501126618e-15
10.738158          7.1035616829e-03 2.7702387624e-03 2.8372828947e-15 6.8094073260e-03 3.1116239108e-03 4.2979171932e-21 2.9415435683e-04 -3.4138514835e-04 2.8372785968e-15
10.894526          7.1880464919e-03 2.7504772472e-03 2.4683555810e-15 6.8987290805e-03 3.0895503090e-03 4.3640724582e-21 2.8931741139e-04 -3.3907306185e-04 2.4683512169e-15
11.049951          7.2781093080e-03 2.7574854755e-03 2.0543397599e-15 6.9932947591e-03 3.0945035031e-03 4.3448485035e-21 2.8481454891e-04 -3.3701802757e-04 2.0543354150e-15
11.204672          7.3452484998e-03 2.7323310553e-03 1.5890561333e-15 7.0646104785e-03 3.0675328523e-03 4.3667914033e-21 2.8063802128e-04 -3.3520179693e-04 1.5890517665e-15
11.358890          7.3927056762e-03 2.7296987551e-03 1.0946780676e-15 7.1159152743e-03 3.0631448496e-03 4.2865547390e-21 2.7679040194e-04 -3.3344609456e-04 1.0946737810e-15
11.512266          7.4397847149e-03 2.7091332819e-03 5.8505506983e-16 7.1665684455e-03 3.0408425785e-03 4.2639117198e-21 2.7321626939e-04 -3.3170929662e-04 5.8505080592e-16
11.664403          7.4860297225e-03 2.7480807150e-03 5.2465112952e-17 7.2161104571e-03 3.0781728495e-03 4.2184017504e-21 2.6991926542e-04 -3.3009213449e-04 5.2460894551e-17
11.814960          7.5336460232e-03 2.7151059176e-03 -4.8649785341e-16 7.2667874455e-03 3.0437860397e-03 4.1223065453e-21 2.6685857770e-04 -3.2868012215e-04 -4.8650197572e-16
11.963894          7.5830153615e-03 2.7561075980e-03 -9.9949636689e-16 7.3189888510e-03 3.0834985644e-03 3.9125917781e-21 2.6402651057e-04 -3.2739096644e-04 -9.9950027948e-16
12.111452          7.6299790261e-03 2.7610401730e-03 -1.4678263192e-15 7.3684242517e-03 3.0871562363e-03 3.7556343785e-21 2.6155477441e-04 -3.2611606332e-04 -1.4678300748e-15
12.257875          7.6586053657e-03 2.7779147597e-03 -1.8811495049e-15 7.3991967526e-03 3.1029064522e-03 3.5028547447e-21 2.5940861314e-04 -3.2499169244e-04 -1.8811530078e-15
12.402587          7.6944780329e-03 2.7939109283e-03 -2.2304598593e-15 7.4369566294e-03 3.1178883850e-03 3.2392122248e-21 2.5752140351e-04 -3.2397745669e-04 -2.2304630985e-15
12.545310          7.7230877090e-03 2.8340679135e-03 -2.5231063154e-15 7.4671195707e-03 3.1570106366e-03 2.8899836238e-21 2.5596813830e-04 -3.2294272308e-04 -2.5231092053e-15
12.686221          7.7541346241e-03 2.8719755197e-03 -2.7690770154e-15 7.4993910770e-03 3.1938834789e-03 2.5396622488e-21 2.5474354711e-04 -3.2190795923e-04 -2.7690795551e-15
12.825521          7.8005781180e-03 2.9231828753e-03 -2.9659543879e-15 7.5467802259e-03 3.2440323751e-03 2.1370419593e-21 2.5379789209e-04 -3.2084949978e-04 -2.9659565249e-15
12.963449          7.8430554397e-03 2.9755971250e-03 -3.1137854367e-15 7.5898674857e-03 3.2953275306e-03 1.7136948006e-21 2.5318795401e-04 -3.1973040556e-04 -3.1137871504e-15
13.100270          7.9019497567e-03 3.0243362311e-03 -3.2361656962e-15 7.6490277225e-03 3.3429279359e-03 1.3193325902e-21 2.5292203418e-04 -3.1859170477e-04 -3.2361670155e-15
13.236260          7.8522330200e-03 3.0878433188e-03 -3.3392140521e-15 7.5992702262e-03 3.4053773297e-03 7.9819232658e-22 2.5296279377e-04 -3.1753401088e-04 -3.3392148503e-15
13.371790          7.8922092551e-03 3.1854335753e-03 -3.4050156063e-15 7.6389123439e-03 3.5018739571e-03 3.4076403201e-22 2.5329691127e-04 -3.1644038180e-04 -3.4050159471e-15
13.506083          7.9202278152e-03 3.2979410063e-03 -3.4221296609e-15 7.6663113983e-03 3.6131100070e-03 -1.0971221660e-22 2.5391641693e-04 -3.1516900075e-04 -3.4221295511e-15
13.638713          7.9532440963e-03 3.3833979908e-03 -3.4499022120e-15 7.6984596055e-03 3.6971636460e-03 -5.6318179538e-22 2.5478449076e-04 -3.1376565518e-04 -3.4499016488e-15
13.770061          8.0067560428e-03 3.4863264681e-03 -3.4716927197e-15 7.7508900816e-03 3.7986595658e-03 -9.6823419677e-22 2.5586596128e-04 -3.1233309777e-04 -3.4716917515e-15
13.900407          8.0367121441e-03 3.5702978263e-03 -3.4514505208e-15 7.7795295371e-03 3.8811063305e-03 -1.3900489956e-21 2.5718260696e-04 -3.1080850413e-04 -3.4514491308e-15
14.030009          8.0684870269e-03 3.7024557000e-03 -3.4299213888e-15 7.8097682884e-03 4.0117630702e-03 -1.8149110550e-21 2.5871873843e-04 -3.0930737023e-04 -3.4299195739e-15
14.159146          8.1377623884e-03 3.8347422071e-03 -3.3794878159e-15 7.8773947051e-03 4.1428018953e-03 -2.1936201392e-21 2.6036768332e-04 -3.0805968823e-04 -3.3794856222e-15
14.288155          8.2171411152e-03 3.9252060179e-03 -3.2891243404e-15 7.9549979333e-03 4.2321298812e-03 -2.5818006211e-21 2.6214318184e-04 -3.0692386329e-04 -3.2891217586e-15
14.416724          8.2780459353e-03 4.0569718766e-03 -3.2225758706e-15 8.0139794558e-03 4.3627990867e-03 -2.9507274844e-21 2.6406647951e-04 -3.0582721014e-04 -3.2225729199e-15
14.544381          8.3434225419e-03 4.1684625131e-03 -3.1888263876e-15 8.0773868826e-03 4.4732864421e-03 -3.2858572544e-21 2.6603565923e-04 -3.0482392903e-04 -3.1888231018e-15
14.671366          8.4092186147e-03 4.3035122163e-03 -3.1673980824e-15 8.1411992743e-03 4.6074263718e-03 -3.6284390681e-21 2.6801934032e-04 -3.0391415543e-04 -3.1673944540e-15
14.797914          8.4853270621e-03 4.4293016576e-03 -3.1338572653e-15 8.2153032351e-03 4.7323441695e-03 -3.9457171914e-21 2.7002382701e-04 -3.0304251191e-04 -3.1338533196e-15
14.924246          8.5442753552e-03 4.5463266530e-03 -3.1054355108e-15 8.2722698092e-03 4.8484804902e-03 -4.2317395836e-21 2.7200554598e-04 -3.0215383727e-04 -3.1054312790e-15
15.050571          8.6427939974e-03 4.6594146584e-03 -3.0834250333e-15 8.3688733004e-03 4.9606836842e-03 -4.5250633613e-21 2.7392069693e-04 -3.0126902575e-04 -3.0834205082e-15
15.177081          8.7379887540e-03 4.7932445763e-03 -2.9954314768e-15 8.4622379864e-03 5.0936598671e-03 -4.7787363930e-21 2.7575076766e-04 -3.0041529082e-04 -2.9954266981e-15
15.303947          8.8373695688e-03 4.9008944158e-03 -2.8059280449e-15 8.5598738042e-03 5.2004645042e-03 -5.0185518637e-21 2.7749576462e-04 -2.9957008837e-04 -2.8059230263e-15
15.430249          8.9212238612e-03 5.0297994235e-03 -2.4833079588e-15 8.6421180602e-03 5.3285321868e-03 -5.2739988554e-21 2.7910580102e-04 -2.9873276329e-04 -2.4833026848e-15
15.556031          9.0167974596e-03 5.1268957038e-03 -2.1969503617e-15 8.7362392447e-03 5.4248727087e-03 -5.4788357971e-21 2.8055821494e-04 -2.9797700490e-04 -2.1969448829e-15
15.681456          9.1343301877e-03 5.2302331436e-03 -2.0194783962e-15 8.8524773119e-03 5.5275930359e-03 -5.6441562380e-21 2.8185287576e-04 -2.9735989226e-04 -2.0194727520e-15
15.806675          9.2489734744e-03 5.3268003954e-03 -1.7837862921e-15 8.9659554669e-03 5.6236441777e-03 -5.8042524826e-21 2.8301800746e-04 -2.9684378229e-04 -1.7837804879e-15
15.931834          9.3598480364e-03 5.4043941942e-03 -1.4596651588e-15 9.0757706397e-03 5.7007418076e-03 -5.9643483938e-21 2.8407739667e-04 -2.9634761335e-04 -1.4596591944e-15
16.057078          9.4936780977e-03 5.4947170585e-03 -1.1564320614e-15 9.2086512918e-03 5.7905591584e-03 -6.0983810788e-21 2.8502680591e-04 -2.9584209988e-04 -1.1564259631e-15
16.182560          9.6484994732e-03 5.5777159645e-03 -9.6398460647e-16 9.3626138581e-03 5.8730488156e-03 -6.2123485362e-21 2.8588561501e-04 -2.9533285107e-04 -9.6397839412e-16
16.308429          9.7550051953e-03 5.6308376752e-03 -9.0576860099e-16 9.4683706092e-03 5.9256649663e-03 -6.2798365118e-21 2.8663458612e-04 -2.9482729113e-04 -9.0576232115e-16
16.434821          9.8809766778e-03 5.6981383699e-03 -9.4264308040e-16 9.5937222702e-03 5.9924651713e-03 -6.3522662701e-21 2.8725440758e-04 -2.9432680134e-04 -9.4263672814e-16
16.561869          1.0014880813e-02 5.7797126484e-03 -1.0325101789e-15 9.7271184882e-03 6.0735543010e-03 -6.3976672261e-21 2.8776232510e-04 -2.9384165264e-04 -1.0325037812e-15
16.689699          1.0161698278e-02 5.8377245035e-03 -1.1870740235e-15 9.8735371818e-03 6.1310702684e-03 -6.4500604172e-21 2.8816109629e-04 -2.9334576489e-04 -1.1870675734e-15
16.818309          1.0229470658e-02 5.8853588993e-03 -1.4337426879e-15 9.9410506408e-03 6.1781904624e-03 -6.4781809091e-21 2.8842001677e-04 -2.9283156313e-04 -1.4337362097e-15
16.946454          1.0379808062e-02 5.9563617752e-03 -1.7258776415e-15 1.0091295676e-02 6.2487007950e-03 -6.4881693816e-21 2.8851238691e-04 -2.9233901985e-04 -1.7258711533e-15
17.074248          1.0527662769e-02 6.0179221647e-03 -2.0314166327e-15 1.0239219849e-02 6.3098221925e-03 -6.4892030911e-21 2.8844292054e-04 -2.9190002789e-04 -2.0314101435e-15
17.201791          1.0666120532e-02 6.0695933692e-03 -2.3559072037e-15 1.0377883768e-02 6.3611180646e-03 -6.4783326457e-21 2.8823676364e-04 -2.9152469540e-04 -2.3559007254e-15
17.329197          1.0823477176e-02 6.1258620618e-03 -2.6785978407e-15 1.0535534857e-02 6.4170495258e-03 -6.4758144949e-21 2.8794231809e-04 -2.9118746402e-04 -2.6785913649e-15
17.456588          1.0912199163e-02 6.1522383722e-03 -3.0205512647e-15 1.0624633066e-02 6.4431475203e-03 -6.4587350937e-21 2.8756609651e-04 -2.9090914804e-04 -3.0205448060e-15
17.584092          1.1061702157e-02 6.2013362770e-03 -3.3837480803e-15 1.0774585456e-02 6.4920080451e-03 -6.4404977062e-21 2.8711670109e-04 -2.9067176815e-04 -3.3837416398e-15
17.711838          1.1187061955e-02 6.2385040291e-03 -3.7515740943e-15 1.0900448426e-02 6.5289555431e-03 -6.4244203650e-21 2.8661352893e-04 -2.9045151396e-04 -3.7515676699e-15
17.839951          1.1299107396e-02 6.2811223631e-03 -4.1307887331e-15 1.1013065104e-02 6.5713963237e-03 -6.4144243644e-21 2.8604229200e-04 -2.9027396056e-04 -4.1307823187e-15
17.968588          1.1419442014e-02 6.3117790771e-03 -4.5073368979e-15 1.1134013988e-02 6.6018815734e-03 -6.4084486725e-21 2.8542802620e-04 -2.9010249637e-04 -4.5073304894e-15
18.097923          1.1571065914e-02 6.3617596710e-03 -4.8643981244e-15 1.1286258887e-02 6.6516482851e-03 -6.3817281536e-21 2.8480702688e-04 -2.8988861412e-04 -4.8643917427e-15
18.228103          1.1699986590e-02 6.3841420258e-03 -5.1758896202e-15 1.1415811501e-02 6.6737823657e-03 -6.3428251658e-21 2.8417508861e-04 -2.8964033994e-04 -5.1758832774e-15
18.359250          1.1818477629e-02 6.4177575107e-03 -5.4316303290e-15 1.1534938303e-02 6.7071097975e-03 -6.3225311737e-21 2.8353932587e-04 -2.8935228680e-04 -5.4316240065e-15
18.490582          1.1944436780e-02 6.4602780778e-03 -5.6101688904e-15 1.1661543180e-02 6.7493016159e-03 -6.2862105944e-21 2.8289359973e-04 -2.8902353811e-04 -5.6101626042e-15
18.622165          1.2089209116e-02 6.5053440251e-03 -5.7165415010e-15 1.1806968932e-02 6.7940076802e-03 -6.2523959976e-21 2.8224018425e-04 -2.8866365509e-04 -5.7165352486e-15
18.754082          1.2221879836e-02 6.5451412097e-03 -5.7329675663e-15 1.1940276129e-02 6.8334164176e-03 -6.2202436206e-21 2.8160370700e-04 -2.8827520796e-04 -5.7329613461e-15
18.886395          1.2330194309e-02 6.5687923576e-03 -5.6182563783e-15 1.2049205236e-02 6.8566347117e-03 -6.1870845507e-21 2.8098907231e-04 -2.8784235409e-04 -5.6182501912e-15
19.019149          1.2464535382e-02 6.6004857769e-03 -5.4058006932e-15 1.2184119611e-02 6.8878440056e-03 -6.1094271082e-21 2.8041577120e-04 -2.8735822876e-04 -5.4057945837e-15
19.152371          1.2571481691e-02 6.6141568171e-03 -5.1561092709e-15 1.2291593319e-02 6.9010016523e-03 -6.0240437455e-21 2.7988837239e-04 -2.8684483525e-04 -5.1561032468e-15
19.286068          1.2694770454e-02 6.6511759045e-03 -4.8782349207e-15 1.2415363156e-02 6.9374612974e-03 -5.9675873642e-21 2.7940729862e-04 -2.8628539281e-04 -4.8782289531e-15
19.420245          1.2845122673e-02 6.6853685226e-03 -4.5789360070e-15 1.2566128726e-02 6.9710345573e-03 -5.8742496931e-21 2.7899394691e-04 -2.8566603471e-04 -4.5789301328e-15
19.554905          1.2982692238e-02 6.7114014625e-03 -4.2870185431e-15 1.2704038536e-02 6.9964016069e-03 -5.7895488123e-21 2.7865370205e-04 -2.8500014438e-04 -4.2870127535e-15
19.690049          1.3103982084e-02 6.7506522303e-03 -4.0556774723e-15 1.2825607769e-02 7.0349375631e-03 -5.6954193926e-21 2.7837431442e-04 -2.8428533287e-04 -4.0556717769e-15
19.825687          1.3214846912e-02 6.7830330541e-03 -3.9109733487e-15 1.2936704444e-02 7.0665549344e-03 -5.5808976402e-21 2.7814246787e-04 -2.8352188029e-04 -3.9109677678e-15
19.961849          1.3329312042e-02 6.8139826542e-03 -3.8920822304e-15 1.3051364140e-02 7.0966989499e-03 -5.4699945510e-21 2.7794790214e-04 -2.8271629575e-04 -3.8920767604e-15
20.098560          1.3495205999e-02 6.8624129080e-03 -3.9880635995e-15 1.3217403997e-02 7.1442760929e-03 -5.3474207615e-21 2.7780200144e-04 -2.8186318494e-04 -3.9880582521e-15
20.235839          1.3617261949e-02 6.8801689816e-03 -4.1569923425e-15 1.3339568608e-02 7.1611467483e-03 -5.1940318764e-21 2.7769334061e-04 -2.8097776675e-04 -4.1569871485e-15
20.373723          1.3750291819e-02 6.9062136775e-03 -4.4126818003e-15 1.3472692629e-02 7.1862884299e-03 -5.0531582857e-21 2.7759918981e-04 -2.8007475234e-04 -4.4126767471e-15
20.511687          1.3881612360e-02 6.9473852165e-03 -4.6896427887e-15 1.3604112529e-02 7.2265489505e-03 -4.9141264124e-21 2.7749983146e-04 -2.7916373402e-04 -4.6896378746e-15
20.649525          1.3992443951e-02 6.9655478079e-03 -4.9868763215e-15 1.3715070660e-02 7.2438160310e-03 -4.7530855439e-21 2.7737329127e-04 -2.7826822318e-04 -4.9868715684e-15
20.787298          1.4126710445e-02 6.9994486565e-03 -5.3551558668e-15 1.3849475626e-02 7.2768462581e-03 -4.5900413049e-21 2.7723481920e-04 -2.7739760164e-04 -5.3551512767e-15
20.925067          1.4266690453e-02 7.0229327782e-03 -5.7230853413e-15 1.3989584132e-02 7.2994797209e-03 -4.4210405734e-21 2.7710632128e-04 -2.7654694265e-04 -5.7230809202e-15
21.062900          1.4369259629e-02 7.0564718477e-03 -6.0427673779e-15 1.4092279018e-02 7.3321709421e-03 -4.2587792670e-21 2.7698061091e-04 -2.7569909441e-04 -6.0427631191e-15
21.200891          1.4499839086e-02 7.0762663428e-03 -6.3750116041e-15 1.4222975190e-02 7.3511166461e-03 -4.0781605565e-21 2.7686389623e-04 -2.7485030339e-04 -6.3750075260e-15
21.339134          1.4637044644e-02 7.1031323702e-03 -6.6746685439e-15 1.4360270891e-02 7.3771333100e-03 -3.8809861664e-21 2.7677375283e-04 -2.7400093980e-04 -6.6746646629e-15
21.477702          1.4767105964e-02 7.1340485144e-03 -6.9017144244e-15 1.4490393056e-02 7.4071864612e-03 -3.6787679641e-21 2.7671290777e-04 -2.7313794685e-04 -6.9017107456e-15
21.616670          1.4886152437e-02 7.1467799416e-03 -7.1530788634e-15 1.4609474546e-02 7.4190404961e-03 -3.4500785442e-21 2.7667789122e-04 -2.7226055454e-04 -7.1530754133e-15
21.756117          1.5052329760e-02 7.1944420310e-03 -7.4514452682e-15 1.4775640892e-02 7.4657946151e-03 -3.2154024412e-21 2.7668886891e-04 -2.7135258415e-04 -7.4514420528e-15
21.896117          1.5192373949e-02 7.2312183351e-03 -7.7287731801e-15 1.4915625323e-02 7.5016231116e-03 -2.9755791887e-21 2.7674862570e-04 -2.7040477653e-04 -7.7287702045e-15
22.036740          1.5324514618e-02 7.2576365182e-03 -7.9635689965e-15 1.5047674354e-02 7.5270649751e-03 -2.7300337563e-21 2.7684026376e-04 -2.6942845683e-04 -7.9635662664e-15
22.178058          1.5445079686e-02 7.2717174656e-03 -8.1611866618e-15 1.5168122475e-02 7.5401506564e-03 -2.4667851914e-21 2.7695721122e-04 -2.6843319083e-04 -8.1611841950e-15
22.320139          1.5568131249e-02 7.2813502742e-03 -8.2601792562e-15 1.5291039369e-02 7.5487754010e-03 -2.2002972016e-21 2.7709188047e-04 -2.6742512677e-04 -8.2601770559e-15
22.462850          1.5710907037e-02 7.3057974858e-03 -8.2037579658e-15 1.5433662682e-02 7.5722106979e-03 -1.9299429094e-21 2.7724435546e-04 -2.6641321211e-04 -8.2037560358e-15
22.605652          1.5851429211e-02 7.3239579836e-03 -7.9954032632e-15 1.5574028560e-02 7.5893933699e-03 -1.6182338431e-21 2.7740065132e-04 -2.6543538635e-04 -7.9954016450e-15
22.748607          1.5989807927e-02 7.3508525330e-03 -7.6364658653e-15 1.5712248809e-02 7.6153560579e-03 -1.3253200876e-21 2.7755911817e-04 -2.6450352494e-04 -7.6364645400e-15
22.891773          1.6119797495e-02 7.3568626160e-03 -7.1201143149e-15 1.5842073567e-02 7.6204666083e-03 -1.0191504093e-21 2.7772392870e-04 -2.6360399230e-04 -7.1201132957e-15
23.035215          1.6253127659e-02 7.3679428028e-03 -6.5224997980e-15 1.5975237663e-02 7.6306711971e-03 -7.0257549258e-22 2.7788999634e-04 -2.6272839434e-04 -6.5224990954e-15
23.179000          1.6404293379e-02 7.3800589242e-03 -5.8930230534e-15 1.6126226590e-02 7.6419296074e-03 -3.6893027305e-22 2.7806678920e-04 -2.6187068322e-04 -5.8930226845e-15
23.322854          1.6589986553e-02 7.3860062832e-03 -5.1882927875e-15 1.6311710612e-02 7.6470564127e-03 -1.6645064573e-23 2.7827594094e-04 -2.6105012951e-04 -5.1882927708e-15
23.466691          1.6737103745e-02 7.4210408779e-03 -4.5164273700e-15 1.6458595324e-02 7.6813087243e-03 3.2621005635e-22 2.7850842077e-04 -2.6026784634e-04 -4.5164276962e-15
23.610576          1.6862491986e-02 7.4223406015e-03 -3.9483938617e-15 1.6583751161e-02 7.6818659947e-03 6.6517925448e-22 2.7874082577e-04 -2.5952539322e-04 -3.9483945269e-15
23.754590          1.7000481255e-02 7.4275286557e-03 -3.4204039984e-15 1.6721504248e-02 7.6863593761e-03 1.0372159588e-21 2.7897700728e-04 -2.5883072045e-04 -3.4204050357e-15
23.898813          1.7130378920e-02 7.4249157552e-03 -2.9206057198e-15 1.6851156862e-02 7.6830784922e-03 1.4208827730e-21 2.7922205838e-04 -2.5816273695e-04 -2.9206071406e-15
24.043309          1.7277747546e-02 7.4168689844e-03 -2.4392557992e-15 1.6998262748e-02 7.6743898876e-03 1.7928628900e-21 2.7948479774e-04 -2.5752090317e-04 -2.4392575920e-15
24.188142          1.7428040628e-02 7.4166202661e-03 -1.9049032810e-15 1.7148255283e-02 7.6735306981e-03 2.1797288405e-21 2.7978534530e-04 -2.5691043203e-04 -1.9049054607e-15
24.333378          1.7551417422e-02 7.4218611460e-03 -1.2800523339e-15 1.7271303253e-02 7.6781902937e-03 2.5707542739e-21 2.8011416840e-04 -2.5632914765e-04 -1.2800549047e-15
24.479117          1.7682334583e-02 7.4190277877e-03 -6.0037316809e-16 1.7401875008e-02 7.6748105231e-03 2.9688948600e-21 2.8045957464e-04 -2.5578273541e-04 -6.0037613699e-16
24.625468          1.7842966289e-02 7.4069807849e-03 1.1889043893e-16 1.7562126409e-02 7.6622290627e-03 3.4021073149e-21 2.8083988015e-04 -2.5524827784e-04 1.1888703682e-16
24.772526          1.8023955992e-02 7.4120117785e-03 9.3453258406e-16 1.7742680657e-02 7.6667037217e-03 3.8346172228e-21 2.8127533533e-04 -2.5469194321e-04 9.3452874944e-16
24.919714          1.8157681073e-02 7.4252964838e-03 1.8511515363e-15 1.7875947484e-02 7.6794239049e-03 4.2385431771e-21 2.8173358902e-04 -2.5412742118e-04 1.8511472978e-15
25.067003          1.8288881978e-02 7.4118462241e-03 2.7701530889e-15 1.8006692167e-02 7.6654225456e-03 4.6667725339e-21 2.8218981139e-04 -2.5357632153e-04 2.7701484222e-15