# Force           
# CofR            : (0.0000000000e+00 0.0000000000e+00 0.0000000000e+00)
#
# Time            	total_x total_y total_z	pressure_x pressure_y pressure_z	viscous_x viscous_y viscous_z
0.120240           1.9418350449e+00 -9.5050210543e-05 -1.3888821883e-16 1.9365101531e+00 2.4279790402e-05 -1.4323907570e-21 5.3248917569e-03 -1.1933000094e-04 -1.3888678644e-16
0.255154           -6.3152908560e-02 3.1273201402e-04 -1.3750426705e-16 -6.8892450827e-02 5.5471586641e-04 1.0097439146e-20 5.7395422668e-03 -2.4198385239e-04 -1.3751436449e-16
0.398512           -4.9278063406e-01 1.3977465512e-03 -1.8283517601e-14 -4.9776585358e-01 1.5651202418e-03 6.8441683788e-21 4.9852195251e-03 -1.6737369061e-04 -1.8283524445e-14
0.531312           -5.7963115033e-02 2.3165125229e-03 -3.4902824455e-14 -6.2105729639e-02 2.4318438232e-03 1.0449589854e-20 4.1426146055e-03 -1.1533130031e-04 -3.4902834905e-14
0.657562           9.4461635271e-02 1.5964389841e-03 -2.9356853490e-14 9.0682923597e-02 1.6897372872e-03 1.4114632020e-20 3.7787116738e-03 -9.3298303098e-05 -2.9356867605e-14
0.781458           -4.2648729015e-02 2.7423728864e-03 -2.7090433770e-14 -4.6199522164e-02 2.8234912603e-03 1.2989495091e-20 3.5507931492e-03 -8.1118373812e-05 -2.7090446759e-14
0.904578           -8.8300151069e-02 3.2077902162e-03 -2.8993937864e-14 -9.1539662719e-02 3.2841590086e-03 8.4632925614e-21 3.2395116497e-03 -7.6368792410e-05 -2.8993946327e-14
1.028803           -8.3371698245e-03 3.1571420451e-03 -2.6561603873e-14 -1.1311534974e-02 3.2367825837e-03 1.1769805374e-20 2.9743651497e-03 -7.9640538604e-05 -2.6561615643e-14
1.154214           1.1002457963e-02 3.8800805917e-03 -2.4705315791e-14 8.2159080706e-03 3.9698830490e-03 1.6087651119e-20 2.7865498929e-03 -8.9802457322e-05 -2.4705331879e-14
1.280475           -9.1545818971e-03 3.4710733490e-03 -2.3848580817e-14 -1.1774909395e-02 3.5746596249e-03 1.0534384849e-20 2.6203274983e-03 -1.0358627586e-04 -2.3848591351e-14
1.407656           -1.0761312995e-02 3.5236629420e-03 -2.2771908687e-14 -1.3219642396e-02 3.6438339659e-03 9.0103154201e-21 2.4583294014e-03 -1.2017102387e-04 -2.2771917697e-14
1.535997           -3.9754721480e-03 3.6078704398e-03 -2.1375612200e-14 -6.2870341666e-03 3.7477528598e-03 1.0335336232e-20 2.3115620186e-03 -1.3988242003e-04 -2.1375622535e-14
1.665600           -2.7535859966e-03 3.6505858092e-03 -2.0509459862e-14 -4.9351288006e-03 3.8123610824e-03 1.0063208557e-20 2.1815428040e-03 -1.6177527318e-04 -2.0509469925e-14
1.796505           -1.9549285169e-03 3.5877206637e-03 -1.9240738665e-14 -4.0178188600e-03 3.7725436395e-03 9.9005723521e-21 2.0628903432e-03 -1.8482297577e-04 -1.9240748565e-14
1.928877           -1.0520773665e-03 3.6454320116e-03 -1.8009706631e-14 -3.0047887420e-03 3.8542078477e-03 9.9034642134e-21 1.9527113755e-03 -2.0877583601e-04 -1.8009716534e-14
2.062904           -3.2645228637e-04 3.5933624989e-03 -1.6803341351e-14 -2.1767218073e-03 3.8267551466e-03 1.0087410802e-20 1.8502695209e-03 -2.3339264766e-04 -1.6803351438e-14
2.198588           2.9954604232e-04 3.6020828336e-03 -1.5614874448e-14 -1.4553990220e-03 3.8604033268e-03 1.0306730617e-20 1.7549450644e-03 -2.5832049322e-04 -1.5614884754e-14
2.335990           8.3493455892e-04 3.5680245881e-03 -1.4469747695e-14 -8.3071738628e-04 3.8511551345e-03 1.0668572462e-20 1.6656519452e-03 -2.8313054641e-04 -1.4469758364e-14
2.475227           1.3069319491e-03 3.5543712883e-03 -1.3383109975e-14 -2.7465814433e-04 3.8618419882e-03 1.1088645765e-20 1.5815900935e-03 -3.0747069986e-04 -1.3383121064e-14
2.616440           1.7159684162e-03 3.4888655899e-03 -1.2366663988e-14 2.1380941958e-04 3.8198869914e-03 1.1579848639e-20 1.5021589966e-03 -3.3102140143e-04 -1.2366675568e-14
2.759559           2.0612782903e-03 3.4735419573e-03 -1.1420271835e-14 6.3426042203e-04 3.8270746023e-03 1.2063515850e-20 1.4270178682e-03 -3.5353264495e-04 -1.1420283898e-14
2.904702           2.3625324973e-03 3.4203645098e-03 -1.0546911036e-14 1.0068102772e-03 3.7952035612e-03 1.2523019687e-20 1.3557222201e-03 -3.7483905132e-04 -1.0546923559e-14
3.051948           2.6148367758e-03 3.4043001760e-03 -9.7405793954e-15 1.3269173058e-03 3.7991715273e-03 1.2852085440e-20 1.2879194700e-03 -3.9487135126e-04 -9.7405922475e-15
3.201314           2.8444730296e-03 3.3780717355e-03 -9.0031417299e-15 1.6211371883e-03 3.7916261170e-03 1.2988703397e-20 1.2233358413e-03 -4.1355438151e-04 -9.0031547186e-15
3.352118           3.0326941003e-03 3.3637391624e-03 -8.3335100293e-15 1.8706961426e-03 3.7944991891e-03 1.2817727311e-20 1.1619979577e-03 -4.3076002669e-04 -8.3335228471e-15
3.503713           3.2055969821e-03 3.3529466707e-03 -7.7259430547e-15 2.1017229150e-03 3.7994490391e-03 1.2400719536e-20 1.1038740671e-03 -4.4650236835e-04 -7.7259554554e-15
3.655904           3.3474379816e-03 3.3462961702e-03 -7.1738953785e-15 2.2986504595e-03 3.8070229036e-03 1.1705053540e-20 1.0487875221e-03 -4.6072673344e-04 -7.1739070836e-15
3.808459           3.4950543378e-03 3.3636313812e-03 -6.6750218221e-15 2.4984837202e-03 3.8370429431e-03 1.0806647267e-20 9.9657061757e-04 -4.7341156184e-04 -6.6750326287e-15
3.961248           3.6097806856e-03 3.3594359160e-03 -6.2223222410e-15 2.6627249847e-03 3.8440320083e-03 9.8211008568e-21 9.4705570086e-04 -4.8459609234e-04 -6.2223320621e-15
4.114128           3.7290876446e-03 3.3912493648e-03 -5.8349429648e-15 2.8289574709e-03 3.8855991766e-03 9.0210620604e-21 9.0013017368e-04 -4.9434981176e-04 -5.8349519859e-15
4.266982           3.8331853319e-03 3.4116198744e-03 -5.5029051275e-15 2.9775399111e-03 3.9143226105e-03 8.1858986960e-21 8.5564542076e-04 -5.0270273614e-04 -5.5029133134e-15
4.419756           3.9300271881e-03 3.4519147851e-03 -5.2158591736e-15 3.1165330615e-03 3.9615821452e-03 7.8504640890e-21 8.1349412655e-04 -5.0966736017e-04 -5.2158670241e-15
4.572409           4.0324207429e-03 3.4996664233e-03 -4.9683170994e-15 3.2588772899e-03 4.0150711247e-03 7.4561292609e-21 7.7354345294e-04 -5.1540470139e-04 -4.9683245555e-15
4.724918           4.1221508834e-03 3.5407896688e-03 -4.7385261785e-15 3.3864464380e-03 4.0607209550e-03 7.4237371130e-21 7.3570444535e-04 -5.1993128618e-04 -4.7385336023e-15
4.877265           4.2223531525e-03 3.6037879696e-03 -4.5182832397e-15 3.5224681740e-03 4.1270676366e-03 7.4678820769e-21 6.9988497852e-04 -5.2327966698e-04 -4.5182907076e-15
5.029441           4.3015427667e-03 3.6641527128e-03 -4.3017123355e-15 3.6355610319e-03 4.1897616558e-03 7.7088254904e-21 6.6598173476e-04 -5.2560894301e-04 -4.3017200444e-15
5.181441           4.4086565622e-03 3.7327482681e-03 -4.0784146027e-15 3.7747446931e-03 4.2596911099e-03 8.0104906917e-21 6.3391186910e-04 -5.2694284182e-04 -4.0784226132e-15
5.333265           4.5105330525e-03 3.8093249482e-03 -3.8348224775e-15 3.9069251177e-03 4.3366889557e-03 8.4087197029e-21 6.0360793476e-04 -5.2736400752e-04 -3.8348308862e-15
5.484915           4.6026898126e-03 3.8807890316e-03 -3.5596179268e-15 4.0277444667e-03 4.4078128753e-03 8.9289574861e-21 5.7494534591e-04 -5.2702384369e-04 -3.5596268558e-15
5.636399           4.7553286089e-03 3.9804945177e-03 -3.2477850558e-15 4.2074367494e-03 4.5064113292e-03 9.6049195278e-21 5.4789185954e-04 -5.2591681143e-04 -3.2477946607e-15
5.787722           4.8045810479e-03 4.0205866999e-03 -2.8910391327e-15 4.2821632944e-03 4.5447008783e-03 1.0390403449e-20 5.2241775346e-04 -5.2411417841e-04 -2.8910495231e-15
5.938896           4.9999417591e-03 4.1425489011e-03 -2.5018186664e-15 4.5015947621e-03 4.6643098879e-03 1.1502845825e-20 4.9834699690e-04 -5.2176098680e-04 -2.5018301692e-15
6.089927           5.0584535948e-03 4.1733259356e-03 -2.0799710900e-15 4.5827927633e-03 4.6922248680e-03 1.2358884599e-20 4.7566083154e-04 -5.1889893244e-04 -2.0799834489e-15
6.240825           5.2193422293e-03 4.2429306390e-03 -1.6224748341e-15 4.7651687054e-03 4.7585873965e-03 1.3501447209e-20 4.5417352389e-04 -5.1565675745e-04 -1.6224883355e-15
6.391596           5.3535722703e-03 4.3347140713e-03 -1.1775041932e-15 4.9196881380e-03 4.8468087705e-03 1.4366253762e-20 4.3388413230e-04 -5.1209469921e-04 -1.1775185595e-15
6.542246           5.4927351440e-03 4.3925317494e-03 -7.1692913183e-16 5.0780648880e-03 4.9007837745e-03 1.5140029907e-20 4.1467025602e-04 -5.0825202517e-04 -7.1694427186e-16
6.692781           5.6303532687e-03 4.4409693142e-03 -2.4056606266e-16 5.2338703956e-03 4.9451470482e-03 1.5628252060e-20 3.9648287317e-04 -5.0417773405e-04 -2.4058169091e-16
6.843209           5.7711037912e-03 4.5033149416e-03 2.1209543023e-16 5.3918475961e-03 5.0032550242e-03 1.5848569718e-20 3.7925619509e-04 -4.9994008261e-04 2.1207958166e-16
6.993534           5.9250911229e-03 4.5523416887e-03 6.5246592011e-16 5.5622512169e-03 5.0478853612e-03 1.5911106042e-20 3.6283990599e-04 -4.9554367252e-04 6.5245000900e-16
7.143764           6.0729111748e-03 4.5959580440e-03 1.0573176756e-15 5.7255992421e-03 5.0869574419e-03 1.5736915000e-20 3.4731193265e-04 -4.9099939791e-04 1.0573019387e-15
7.293902           6.2443441019e-03 4.6483714059e-03 1.4223296799e-15 5.9118219850e-03 5.1347955830e-03 1.5753031924e-20 3.3252211683e-04 -4.8642417711e-04 1.4223139268e-15
7.443954           6.3755342177e-03 4.6648920737e-03 1.7497985578e-15 6.0571717403e-03 5.1466901845e-03 1.5590093855e-20 3.1836247740e-04 -4.8179811079e-04 1.7497829677e-15
7.593923           6.5380303824e-03 4.7046410623e-03 2.0532819616e-15 6.2331946693e-03 5.1817820264e-03 1.5820744656e-20 3.0483571305e-04 -4.7714096408e-04 2.0532661408e-15
7.743812           6.7057528116e-03 4.7241742649e-03 2.3379703058e-15 6.4138718229e-03 5.1966633602e-03 1.6139418511e-20 2.9188098871e-04 -4.7248909532e-04 2.3379541664e-15
7.893625           6.8345277217e-03 4.7399753132e-03 2.6065452082e-15 6.5550988981e-03 5.2078046355e-03 1.6655507305e-20 2.7942882356e-04 -4.6782932227e-04 2.6065285527e-15
8.043363           7.0223691756e-03 4.7511684796e-03 2.8756681682e-15 6.7549796005e-03 5.2143442228e-03 1.7197839614e-20 2.6738957512e-04 -4.6317574324e-04 2.8756509703e-15
8.193030           7.1549335125e-03 4.7585908749e-03 3.1541869494e-15 6.8990557416e-03 5.2171334065e-03 1.7704439353e-20 2.5587777086e-04 -4.5854253163e-04 3.1541692450e-15
8.342627           7.2991611773e-03 4.7440477381e-03 3.4658541278e-15 7.0543214837e-03 5.1979746197e-03 1.7978991312e-20 2.4483969360e-04 -4.5392688159e-04 3.4658361488e-15
8.492157           7.4592480674e-03 4.7441290085e-03 3.8003211125e-15 7.2250384484e-03 5.1934451705e-03 1.8187297749e-20 2.3420961903e-04 -4.4931616199e-04 3.8003029252e-15
8.640843           7.5731659736e-03 4.7211348246e-03 4.1362952730e-15 7.3490870949e-03 5.1658334881e-03 1.8012727633e-20 2.2407887874e-04 -4.4469866354e-04 4.1362772603e-15
8.788672           7.7459482504e-03 4.7140587246e-03 4.4605930768e-15 7.5315236936e-03 5.1541516569e-03 1.7667298732e-20 2.1442455677e-04 -4.4009293231e-04 4.4605754095e-15
8.935623           7.8242458531e-03 4.6944735247e-03 4.7521372651e-15 7.6189924145e-03 5.1299682981e-03 1.7014257614e-20 2.0525343867e-04 -4.3549477336e-04 4.7521202508e-15
9.081862           7.9868192292e-03 4.6760042772e-03 5.0074284063e-15 7.7902928689e-03 5.1069906186e-03 1.6278340192e-20 1.9652636038e-04 -4.3098634143e-04 5.0074121280e-15
9.227201           8.0703208500e-03 4.6332717541e-03 5.2247510691e-15 7.8820354985e-03 5.0598035803e-03 1.5302153407e-20 1.8828535148e-04 -4.2653182612e-04 5.2247357669e-15
9.371760           8.2104638113e-03 4.6254655932e-03 5.4209734950e-15 8.0299918143e-03 5.0476422969e-03 1.4379760029e-20 1.8047199705e-04 -4.2217670369e-04 5.4209591152e-15
9.515659           8.2866343207e-03 4.5989963105e-03 5.6115621062e-15 8.1135658635e-03 5.0168854904e-03 1.3309466354e-20 1.7306845721e-04 -4.1788917994e-04 5.6115487968e-15
9.658629           8.3905402225e-03 4.5633890778e-03 5.7882028718e-15 8.2244438340e-03 4.9769507225e-03 1.2297485542e-20 1.6609638845e-04 -4.1356164463e-04 5.7881905743e-15
9.800865           8.4649554861e-03 4.5518792121e-03 5.9551855533e-15 8.3054750848e-03 4.9612620073e-03 1.1311749076e-20 1.5948040121e-04 -4.0938279519e-04 5.9551742416e-15
9.942541           8.5634687435e-03 4.5101026253e-03 6.0834280793e-15 8.4102273600e-03 4.9153938396e-03 1.0232010056e-20 1.5324138351e-04 -4.0529121427e-04 6.0834178473e-15
10.083276          8.6792270192e-03 4.5124606006e-03 6.1510449531e-15 8.5318402422e-03 4.9137476291e-03 9.1737793382e-21 1.4738677699e-04 -4.0128702853e-04 6.1510357794e-15
10.223183          8.7117620815e-03 4.4823471375e-03 6.1334083320e-15 8.5698631386e-03 4.8797164681e-03 8.0389160400e-21 1.4189894287e-04 -3.9736933051e-04 6.1334002930e-15
10.362456          8.8046874445e-03 4.4644450999e-03 6.0087201073e-15 8.6679012932e-03 4.8579536553e-03 6.9245391648e-21 1.3678615128e-04 -3.9350855540e-04 6.0087131828e-15
10.500998          8.8703677039e-03 4.4700744668e-03 5.7746507093e-15 8.7383982558e-03 4.8599560830e-03 5.7836588700e-21 1.3196944808e-04 -3.8988161615e-04 5.7746449256e-15
10.638547          8.9446692131e-03 4.3974458209e-03 5.4290163796e-15 8.8172174124e-03 4.7838713442e-03 4.5793148692e-21 1.2745180069e-04 -3.8642552322e-04 5.4290118002e-15
10.775364          8.9871365477e-03 4.4179829795e-03 5.0041280627e-15 8.8638288328e-03 4.8008975430e-03 3.3494569702e-21 1.2330771489e-04 -3.8291456352e-04 5.0041247133e-15
10.911676          9.0705961492e-03 4.4339106408e-03 4.5202913901e-15 8.9511956183e-03 4.8135114129e-03 2.1479784306e-21 1.1940053091e-04 -3.7960077208e-04 4.5202892421e-15
11.046941          9.1107796498e-03 4.4222725067e-03 4.0011112731e-15 8.9951354848e-03 4.7989013373e-03 1.0291198359e-21 1.1564416501e-04 -3.7662883058e-04 4.0011102440e-15
11.181230          9.1767894056e-03 4.4267782915e-03 3.4562528198e-15 9.0646461626e-03 4.8005137878e-03 -5.3241393718e-23 1.1214324296e-04 -3.7373549637e-04 3.4562528730e-15
11.314837          9.2134872976e-03 4.4268702142e-03 2.8840975707e-15 9.1045534455e-03 4.7977430811e-03 -1.0924540582e-21 1.0893385217e-04 -3.7087286692e-04 2.8840986632e-15
11.448011          9.2914293032e-03 4.4522083718e-03 2.3011246279e-15 9.1855822000e-03 4.8204819000e-03 -2.0022973135e-21 1.0584710317e-04 -3.6827352815e-04 2.3011266302e-15
11.579882          9.3406158565e-03 4.4591954390e-03 1.7221541613e-15 9.2377741739e-03 4.8251956730e-03 -2.9282420832e-21 1.0284168266e-04 -3.6600023398e-04 1.7221570896e-15
11.710733          9.3771538903e-03 4.5025484561e-03 1.1741431854e-15 9.2770986399e-03 4.8662698246e-03 -3.6261897808e-21 1.0005525042e-04 -3.6372136844e-04 1.1741468116e-15
11.840927          9.4053243164e-03 4.5372321219e-03 6.2918809922e-16 9.3078659122e-03 4.8987196626e-03 -4.2762784090e-21 9.7458404234e-05 -3.6148754070e-04 6.2919237549e-16
11.970801          9.4645689841e-03 4.5559961876e-03 8.8901999897e-17 9.3696455151e-03 4.9155601926e-03 -4.6952252189e-21 9.4923468922e-05 -3.5956400500e-04 8.8906695122e-17
12.099433          9.5166365090e-03 4.5799534793e-03 -3.7677127191e-16 9.4241322922e-03 4.9377002674e-03 -5.0071457218e-21 9.2504216767e-05 -3.5774678812e-04 -3.7676626476e-16
12.227147          9.5535380261e-03 4.6872736002e-03 -7.3113151739e-16 9.4632342341e-03 5.0430305288e-03 -5.0004979700e-21 9.0303792023e-05 -3.5575692864e-04 -7.3112651690e-16
12.354300          9.6085175603e-03 4.6917958913e-03 -9.3576180794e-16 9.5201813815e-03 5.0455266449e-03 -4.9277742547e-21 8.8336178816e-05 -3.5373075355e-04 -9.3575688016e-16
12.481203          9.6481599326e-03 4.7674674189e-03 -1.0102536022e-15 9.5617107877e-03 5.1193827698e-03 -4.5031535403e-21 8.6449144926e-05 -3.5191535092e-04 -1.0102490990e-15
12.607488          9.7008725373e-03 4.8269218997e-03 -9.5275922153e-16 9.6162320215e-03 5.1771895235e-03 -3.9545857013e-21 8.4640515787e-05 -3.5026762385e-04 -9.5275526694e-16
12.732875          9.7758255612e-03 4.8608966254e-03 -6.9994806458e-16 9.6927733902e-03 5.2094231365e-03 -3.1526064035e-21 8.3052170948e-05 -3.4852651108e-04 -6.9994491197e-16
12.857697          9.8576306787e-03 4.9539297534e-03 -2.8460144101e-16 9.7759656517e-03 5.3006312022e-03 -2.2170327269e-21 8.1665026936e-05 -3.4670144879e-04 -2.8459922398e-16
12.982244          9.9310460018e-03 5.0274737482e-03 3.9887463369e-16 9.8506113291e-03 5.3724637257e-03 -1.1953832543e-21 8.0434672704e-05 -3.4498997758e-04 3.9887582907e-16
13.106781          1.0007402011e-02 5.0890718899e-03 1.3730363665e-15 9.9279984345e-03 5.4323246470e-03 -5.8199045803e-23 7.9403576302e-05 -3.4325275715e-04 1.3730364247e-15
13.230679          1.0051844316e-02 5.1583408167e-03 2.5901578997e-15 9.9733021224e-03 5.4997433625e-03 1.1789357451e-21 7.8542193460e-05 -3.4140254582e-04 2.5901567207e-15
13.353964          1.0128797193e-02 5.2151100569e-03 4.0516130360e-15 1.0051006703e-02 5.5547335571e-03 2.2983037977e-21 7.7790490588e-05 -3.3962350026e-04 4.0516107377e-15
13.476973          1.0234836686e-02 5.3278183440e-03 5.7330712098e-15 1.0157659254e-02 5.6657306629e-03 3.5468934654e-21 7.7177432296e-05 -3.3791231888e-04 5.7330676629e-15
13.599920          1.0329041296e-02 5.3809995153e-03 7.6323633740e-15 1.0252224389e-02 5.7170031919e-03 4.7018620061e-21 7.6816907125e-05 -3.3600367658e-04 7.6323586722e-15
13.723024          1.0405758301e-02 5.4825031298e-03 9.5615473748e-15 1.0329170379e-02 5.8164455755e-03 5.9761609382e-21 7.6587921803e-05 -3.3394244573e-04 9.5615413987e-15
13.846329          1.0515686590e-02 5.5196255139e-03 1.1578613316e-14 1.0439282919e-02 5.8515156838e-03 7.1555913163e-21 7.6403670843e-05 -3.3189016989e-04 1.1578606160e-14
13.969194          1.0622643475e-02 5.6283754883e-03 1.3775462329e-14 1.0546423036e-02 5.9584335769e-03 8.4903610683e-21 7.6220438465e-05 -3.3005808852e-04 1.3775453838e-14
14.092001          1.0710678186e-02 5.6829040775e-03 1.5962713267e-14 1.0634646395e-02 6.0112049270e-03 1.0058371089e-20 7.6031791689e-05 -3.2830084949e-04 1.5962703209e-14
14.214978          1.0791198681e-02 5.7785904823e-03 1.7991651343e-14 1.0715201534e-02 6.1047645511e-03 1.1785834111e-20 7.5997146928e-05 -3.2617406879e-04 1.7991639558e-14
14.338347          1.0888713232e-02 5.8143150197e-03 1.9848675482e-14 1.0812603553e-02 6.1380780431e-03 1.3481956203e-20 7.6109679012e-05 -3.2376302335e-04 1.9848662000e-14
14.462402          1.1070672502e-02 5.8805398558e-03 2.1584554139e-14 1.0994390237e-02 6.2018664662e-03 1.5649312131e-20 7.6282265963e-05 -3.2132661041e-04 2.1584538489e-14
14.587190          1.1133742570e-02 5.9517824145e-03 2.3494782194e-14 1.1057440168e-02 6.2708199560e-03 1.8080077420e-20 7.6302401957e-05 -3.1903754144e-04 2.3494764114e-14
14.712093          1.1298740115e-02 6.0106239895e-03 2.5654357649e-14 1.1222545656e-02 6.3273371445e-03 2.0314693572e-20 7.6194459524e-05 -3.1671315495e-04 2.5654337335e-14
14.837459          1.1399404099e-02 6.0530349939e-03 2.7425351065e-14 1.1323306039e-02 6.3672625182e-03 2.2640045691e-20 7.6098059736e-05 -3.1422752430e-04 2.7425328425e-14
14.963448          1.1526894586e-02 6.0697792875e-03 2.8730803571e-14 1.1450880502e-02 6.3813186867e-03 2.4888909239e-20 7.6014083881e-05 -3.1153939920e-04 2.8730778682e-14
15.090237          1.1664255710e-02 6.0820868943e-03 3.0025377505e-14 1.1588360624e-02 6.3908291460e-03 2.7104179384e-20 7.5895086146e-05 -3.0874225169e-04 3.0025350401e-14
15.218097          1.1777629385e-02 6.1449113964e-03 3.1598583737e-14 1.1701934217e-02 6.4508258560e-03 2.9104767899e-20 7.5695167947e-05 -3.0591445955e-04 3.1598554633e-14
15.347330          1.1914069911e-02 6.1379921416e-03 3.3072962779e-14 1.1838664295e-02 6.4409935385e-03 3.0788960864e-20 7.5405616417e-05 -3.0300139688e-04 3.3072931990e-14
15.477069          1.2035446740e-02 6.1487746863e-03 3.4331987825e-14 1.1960480427e-02 6.4487846320e-03 3.2149608050e-20 7.4966313104e-05 -3.0000994574e-04 3.4331955675e-14
15.607549          1.2207273124e-02 6.2268881831e-03 3.5734755189e-14 1.2132913448e-02 6.5238615790e-03 3.3201549008e-20 7.4359675972e-05 -2.9697339598e-04 3.5734721988e-14
15.738976          1.2304495097e-02 6.1558078157e-03 3.7434761745e-14 1.2230791689e-02 6.4496008163e-03 3.3812606368e-20 7.3703408687e-05 -2.9379300064e-04 3.7434727932e-14
15.871554          1.2418043193e-02 6.2081677476e-03 3.9513931999e-14 1.2344997481e-02 6.4985896350e-03 3.4057625904e-20 7.3045712315e-05 -2.9042188739e-04 3.9513897941e-14
16.005561          1.2527731232e-02 6.1716674562e-03 4.1638078655e-14 1.2455336363e-02 6.4585475329e-03 3.4188484032e-20 7.2394868822e-05 -2.8688007678e-04 4.1638044466e-14
16.140419          1.2654699555e-02 6.1618530209e-03 4.3507554923e-14 1.2583029242e-02 6.4450630375e-03 3.4103827166e-20 7.1670313403e-05 -2.8321001659e-04 4.3507520819e-14
16.276048          1.2804424915e-02 6.1846553645e-03 4.5717451653e-14 1.2733692162e-02 6.4642267263e-03 3.3879302200e-20 7.0732753264e-05 -2.7957136179e-04 4.5717417774e-14
16.412668          1.2943595447e-02 6.1890126171e-03 4.8337609778e-14 1.2873849337e-02 6.4649277267e-03 3.3590747001e-20 6.9746109934e-05 -2.7591510963e-04 4.8337576187e-14
16.549835          1.3039915319e-02 6.1485097347e-03 5.1817286312e-14 1.2971044140e-02 6.4205695119e-03 3.3301531108e-20 6.8871178164e-05 -2.7205977715e-04 5.1817253010e-14
16.686159          1.3133298452e-02 6.1273620092e-03 5.6466670120e-14 1.3065230446e-02 6.3953794773e-03 3.3179580635e-20 6.8068006473e-05 -2.6801746810e-04 5.6466636941e-14
16.821650          1.3231895046e-02 6.1259302485e-03 6.1687181844e-14 1.3164785626e-02 6.3899884639e-03 3.2962817882e-20 6.7109420582e-05 -2.6405821544e-04 6.1687148881e-14
16.956344          1.3362702489e-02 6.0816659920e-03 6.7108976300e-14 1.3296653780e-02 6.3419022313e-03 3.2920804028e-20 6.6048709395e-05 -2.6023623934e-04 6.7108943379e-14
17.090250          1.3445041478e-02 6.1159059298e-03 7.3455266952e-14 1.3379943360e-02 6.3722690968e-03 3.2789482985e-20 6.5098117107e-05 -2.5636316705e-04 7.3455234162e-14
17.223327          1.3529925220e-02 6.1000514712e-03 8.1240798661e-14 1.3465630185e-02 6.3523881527e-03 3.2989445758e-20 6.4295035319e-05 -2.5233668149e-04 8.1240765672e-14
17.355399          1.3664094252e-02 6.0817669282e-03 8.9538305617e-14 1.3600564458e-02 6.3301047846e-03 3.3131168584e-20 6.3529794200e-05 -2.4833785644e-04 8.9538272486e-14
17.486498          1.3714225810e-02 6.0644668828e-03 9.8693555018e-14 1.3651414829e-02 6.3088555280e-03 3.3324760732e-20 6.2810981673e-05 -2.4438864520e-04 9.8693521693e-14
17.616623          1.3802113501e-02 6.0424611972e-03 1.0943671185e-13 1.3739893459e-02 6.2828680662e-03 3.3557799238e-20 6.2220042159e-05 -2.4040686893e-04 1.0943667829e-13
17.745770          1.3881621022e-02 6.1019366371e-03 1.2233320456e-13 1.3819860956e-02 6.3383734156e-03 3.3883309261e-20 6.1760066163e-05 -2.3643677848e-04 1.2233317068e-13
17.873942          1.3894818209e-02 6.0814825599e-03 1.3813549058e-13 1.3833354834e-02 6.3139508799e-03 3.4329548803e-20 6.1463375231e-05 -2.3246832002e-04 1.3813545625e-13
18.001123          1.3986460482e-02 6.0989217896e-03 1.5546675688e-13 1.3925228297e-02 6.3274515659e-03 3.4862092837e-20 6.1232184891e-05 -2.2852977639e-04 1.5546672202e-13
18.127296          1.4018890739e-02 6.1046106829e-03 1.7429100556e-13 1.3957732272e-02 6.3291835260e-03 3.5589537345e-20 6.1158466982e-05 -2.2457284310e-04 1.7429096997e-13
18.252444          1.4084619517e-02 6.1311408462e-03 1.9641597816e-13 1.4023293480e-02 6.3517053030e-03 3.6398407214e-20 6.1326036789e-05 -2.2056445679e-04 1.9641594176e-13
18.376566          1.4140556276e-02 6.1916737354e-03 2.2207112248e-13 1.4078945354e-02 6.4082634339e-03 3.7374215828e-20 6.1610922343e-05 -2.1658969858e-04 2.2207108511e-13
18.499646          1.4185268243e-02 6.2002934907e-03 2.5037264414e-13 1.4123222778e-02 6.4129040003e-03 3.8395237311e-20 6.2045465080e-05 -2.1261050958e-04 2.5037260574e-13
18.621678          1.4129272118e-02 6.2349419557e-03 2.8096607148e-13 1.4066622685e-02 6.4435343612e-03 3.9526541128e-20 6.2649433671e-05 -2.0859240549e-04 2.8096603195e-13
18.742687          1.4121073011e-02 6.2802802495e-03 3.1537160472e-13 1.4057656518e-02 6.4848315961e-03 4.0731692425e-20 6.3416493192e-05 -2.0455134663e-04 3.1537156399e-13
18.862693          1.4178472569e-02 6.3472029887e-03 3.5443679836e-13 1.4114111164e-02 6.5476769030e-03 4.1917469360e-20 6.4361405092e-05 -2.0047391433e-04 3.5443675644e-13
18.981632          1.4202879317e-02 6.4259639842e-03 3.9673562435e-13 1.4137417381e-02 6.6223495666e-03 4.3273075291e-20 6.5461935690e-05 -1.9638558237e-04 3.9673558108e-13
19.099335          1.4214416821e-02 6.5381199505e-03 4.4145194193e-13 1.4147646731e-02 6.7304555988e-03 4.4493559948e-20 6.6770090056e-05 -1.9233564832e-04 4.4145189743e-13
19.215835          1.4194094541e-02 6.6186928706e-03 4.9033757781e-13 1.4125746792e-02 6.8069694871e-03 4.5760244398e-20 6.8347749141e-05 -1.8827661644e-04 4.9033753205e-13
19.331192          1.4221222574e-02 6.7246076496e-03 5.4362392304e-13 1.4151108147e-02 6.9087774426e-03 4.7012135168e-20 7.0114427562e-05 -1.8416979296e-04 5.4362387603e-13
19.445514          1.4231594938e-02 6.8302751517e-03 6.0023159264e-13 1.4159571135e-02 7.0103777625e-03 4.8050610433e-20 7.2023802310e-05 -1.8010261084e-04 6.0023154459e-13
19.558898          1.4237092155e-02 6.9463846339e-03 6.6011901427e-13 1.4162920141e-02 7.1224984280e-03 4.9090483533e-20 7.4172014318e-05 -1.7611379416e-04 6.6011896517e-13
19.671442          1.4290781402e-02 7.0965030558e-03 7.2398505608e-13 1.4214263993e-02 7.2685801184e-03 4.9963009687e-20 7.6517409023e-05 -1.7207706261e-04 7.2398500612e-13
19.783273          1.4257465022e-02 7.2234409296e-03 7.9255022982e-13 1.4178449639e-02 7.3913914883e-03 5.0716263508e-20 7.9015382850e-05 -1.6795055862e-04 7.9255017910e-13
19.894524          1.4220711553e-02 7.3109102566e-03 8.6476060553e-13 1.4139050064e-02 7.4746966439e-03 5.1439245663e-20 8.1661489171e-05 -1.6378638738e-04 8.6476055409e-13
20.005301          1.4310546552e-02 7.4650979608e-03 9.4141637590e-13 1.4226113663e-02 7.6247150848e-03 5.1855530036e-20 8.4432889737e-05 -1.5961712403e-04 9.4141632405e-13
20.115736          1.4343889887e-02 7.5750597711e-03 1.0232774263e-12 1.4256467336e-02 7.7304676296e-03 5.2359051073e-20 8.7422551444e-05 -1.5540785846e-04 1.0232773739e-12
20.225963          1.4332859477e-02 7.7012296608e-03 1.1102679437e-12 1.4242291551e-02 7.8523957772e-03 5.2651112514e-20 9.0567926619e-05 -1.5116611641e-04 1.1102678911e-12
20.336086          1.4402157138e-02 7.8251619478e-03 1.2034995591e-12 1.4308370186e-02 7.9720953189e-03 5.2722729930e-20 9.3786951983e-05 -1.4693337106e-04 1.2034995064e-12
20.446203          1.4429896565e-02 7.9516038303e-03 1.3009473011e-12 1.4332786857e-02 8.0943320289e-03 5.2729285863e-20 9.7109707944e-05 -1.4272819863e-04 1.3009472484e-12
20.555887          1.4465175689e-02 8.0458911338e-03 1.4023165986e-12 1.4364653919e-02 8.1845306319e-03 5.2636633218e-20 1.0052176969e-04 -1.3863949809e-04 1.4023165459e-12
20.665260          1.4573478702e-02 8.1805293957e-03 1.5106512486e-12 1.4469451451e-02 8.3153113843e-03 5.2357861425e-20 1.0402725100e-04 -1.3478198860e-04 1.5106511963e-12
20.774477          1.4588231652e-02 8.2815072488e-03 1.6246222307e-12 1.4480601298e-02 8.4126757134e-03 5.2096592810e-20 1.0763035409e-04 -1.3116846455e-04 1.6246221786e-12
20.883644          1.4678999821e-02 8.3932652617e-03 1.7433052171e-12 1.4567751134e-02 8.5209307743e-03 5.1530565000e-20 1.1124868762e-04 -1.2766551258e-04 1.7433051656e-12
20.992832          1.4790669849e-02 8.4900370338e-03 1.8672697866e-12 1.4675712089e-02 8.6142594059e-03 5.1052022969e-20 1.1495775909e-04 -1.2422237210e-04 1.8672697355e-12
21.102112          1.4833995665e-02 8.5635382884e-03 1.9968504189e-12 1.4715202124e-02 8.6844249331e-03 5.0349178532e-20 1.1879354091e-04 -1.2088664471e-04 1.9968503686e-12
21.211526          1.4908490459e-02 8.6483703370e-03 2.1317715728e-12 1.4785869303e-02 8.7660222274e-03 4.9518607778e-20 1.2262115647e-04 -1.1765189047e-04 2.1317715232e-12
21.321104          1.4975530187e-02 8.7040672465e-03 2.2691463933e-12 1.4849068931e-02 8.8185752042e-03 4.8742758653e-20 1.2646125584e-04 -1.1450795776e-04 2.2691463445e-12
21.430865          1.5081178842e-02 8.7937938375e-03 2.4059837467e-12 1.4950825654e-02 8.9053143554e-03 4.7849719900e-20 1.3035318806e-04 -1.1152051789e-04 2.4059836988e-12
21.540804          1.5155473406e-02 8.8580033273e-03 2.5412035200e-12 1.5021166224e-02 8.9667454798e-03 4.6835303405e-20 1.3430718197e-04 -1.0874215253e-04 2.5412034731e-12
21.650941          1.5229487220e-02 8.9126019802e-03 2.6745376103e-12 1.5091220694e-02 9.0187476310e-03 4.5824232792e-20 1.3826652665e-04 -1.0614565079e-04 2.6745375645e-12
21.761292          1.5354165148e-02 8.9831718964e-03 2.8009394905e-12 1.5211972004e-02 9.0869013724e-03 4.4749777648e-20 1.4219314413e-04 -1.0372947604e-04 2.8009394457e-12
21.871863          1.5384478544e-02 9.0167197782e-03 2.9196515270e-12 1.5238332544e-02 9.1182511849e-03 4.3644177438e-20 1.4614600053e-04 -1.0153140667e-04 2.9196514833e-12
21.982668          1.5504721566e-02 9.0746905743e-03 3.0285876265e-12 1.5354589567e-02 9.1742350972e-03 4.2516573395e-20 1.5013199859e-04 -9.9544522951e-05 3.0285875840e-12
22.093707          1.5576510504e-02 9.1214184096e-03 3.1256726522e-12 1.5422396249e-02 9.2191673243e-03 4.1402394746e-20 1.5411425445e-04 -9.7748914717e-05 3.1256726108e-12
22.204995          1.5661984300e-02 9.1483167658e-03 3.2089279481e-12 1.5503901838e-02 9.2444679783e-03 4.0395744439e-20 1.5808246207e-04 -9.6151212414e-05 3.2089279077e-12
22.316537          1.5736931970e-02 9.1842257243e-03 3.2751913723e-12 1.5574920117e-02 9.2790011298e-03 3.9288651147e-20 1.6201185255e-04 -9.4775405531e-05 3.2751913330e-12
22.428322          1.5822356986e-02 9.2178358505e-03 3.3250513902e-12 1.5656467950e-02 9.3114469495e-03 3.8325881806e-20 1.6588903580e-04 -9.3611099074e-05 3.3250513519e-12
22.540356          1.5875913586e-02 9.2570878800e-03 3.3583276956e-12 1.5706214830e-02 9.3497109589e-03 3.7280868321e-20 1.6969875612e-04 -9.2623078889e-05 3.3583276583e-12